
     Program BANDS v.7.4.1 starts on 16May2025 at 13:39:42 

     This program is part of the open-source Quantum ESPRESSO suite
     for quantum simulation of materials; please cite
         "P. Giannozzi et al., J. Phys.:Condens. Matter 21 395502 (2009);
         "P. Giannozzi et al., J. Phys.:Condens. Matter 29 465901 (2017);
         "P. Giannozzi et al., J. Chem. Phys. 152 154105 (2020);
          URL http://www.quantum-espresso.org", 
     in publications or presentations arising from this work. More details at
     http://www.quantum-espresso.org/quote

     Serial version
     2831 MiB available memory on the printing compute node when the environment starts


     Reading xml data from directory:

     ./tmp/si.save/

     IMPORTANT: XC functional enforced from input :
     Exchange-correlation= PW
                           (   1   4   0   0   0   0   0)
     Any further DFT definition will be discarded
     Please, verify this is what you really want


     G-vector sticks info
     --------------------
     sticks:   dense  smooth     PW     G-vecs:    dense   smooth      PW
     Sum        1159    1159    337                25821    25821    4015

     Using Slab Decomposition

     Reading collected, re-writing distributed wavefunctions
     high-symmetry point:  0.0000 0.0000 0.0000   x coordinate   0.0000
     high-symmetry point:  0.0000 0.0000 1.0000   x coordinate   1.0000
     high-symmetry point:  0.0000 0.5000 1.0000   x coordinate   1.5000
     high-symmetry point: -0.7500 0.7500 0.0000   x coordinate   2.7748
     high-symmetry point:  0.0000 0.0000 0.0000   x coordinate   3.8354

     Plottable bands (eV) written to file ./data/si.bands.dat.gnu
     Bands written to file ./data/si.bands.dat

 **************************************************************************

                    xk=(   0.00000,   0.00000,   0.00000  )

     point group O_h (m-3m) 
     there are 10 classes
     the character table:

       E     8C3   3C2   6C4   6C2'  i     8S6   3s_h  6S4   6s_d 
A_1g   1.00  1.00  1.00  1.00  1.00  1.00  1.00  1.00  1.00  1.00
A_2g   1.00  1.00  1.00 -1.00 -1.00  1.00  1.00  1.00 -1.00 -1.00
E_g    2.00 -1.00  2.00  0.00  0.00  2.00 -1.00  2.00  0.00  0.00
T_1g   3.00  0.00 -1.00  1.00 -1.00  3.00  0.00 -1.00  1.00 -1.00
T_2g   3.00  0.00 -1.00 -1.00  1.00  3.00  0.00 -1.00 -1.00  1.00
A_1u   1.00  1.00  1.00  1.00  1.00 -1.00 -1.00 -1.00 -1.00 -1.00
A_2u   1.00  1.00  1.00 -1.00 -1.00 -1.00 -1.00 -1.00  1.00  1.00
E_u    2.00 -1.00  2.00  0.00  0.00 -2.00  1.00 -2.00  0.00  0.00
T_1u   3.00  0.00 -1.00  1.00 -1.00 -3.00  0.00  1.00 -1.00  1.00
T_2u   3.00  0.00 -1.00 -1.00  1.00 -3.00  0.00  1.00  1.00 -1.00

     the symmetry operations in each class and the name of the first element:

     E        1
                                                                 
     8C3     17   19   20   18   24   21   22   23
                                                                 
     3C2      2    4    3
                                                                 
     6C4      7    8   15   16   12   11
                                                                 
     6C2'     5    6   14   13   10    9
                                                                 
     i       25
                                                                 
     8S6     41   43   44   42   48   45   46   47
                                                                 
     3s_h    26   28   27
                                                                 
     6S4     31   32   39   40   36   35
                                                                 
     6s_d    29   30   38   37   34   33
                                                                 

     Band symmetry, O_h (m-3m)  point group:

     e(  1 -  1) =     -5.87489  eV     1   --> A_1g G_1   G_1+
     e(  2 -  4) =      6.17956  eV     3   --> T_2g G_25' G_5+
     e(  5 -  7) =      8.71994  eV     3   --> T_1u G_15  G_4-
     e(  8 -  8) =      9.50332  eV     1   --> A_2u G_2'  G_2-
     e(  9 -  9) =     13.91702  eV     1   -->   ?
     e( 10 - 10) =     13.94279  eV     1   -->   ?

 **************************************************************************

 **************************************************************************

                    xk=(   0.00000,   0.00000,   0.02500  )

     point group C_4v (4mm) 
     there are  5 classes
     the character table:

       E     2C4   C2    2s_v  2s_d 
A_1    1.00  1.00  1.00  1.00  1.00
A_2    1.00  1.00  1.00 -1.00 -1.00
B_1    1.00 -1.00  1.00  1.00 -1.00
B_2    1.00 -1.00  1.00 -1.00  1.00
E      2.00  0.00 -2.00  0.00  0.00

     the symmetry operations in each class and the name of the first element:

     E        1
                                                                 
     2C4      3    4
                                                                 
     C2       2
                                                                 
     2s_v     5    6
                                                                 
     2s_d     7    8
                                                                 

     Band symmetry, C_4v (4mm)  point group:

     e(  1 -  1) =     -5.87212  eV     1   --> A_1  G_1 D_1   
     e(  2 -  2) =      6.16041  eV     1   --> B_2  G_4 D_2'  
     e(  3 -  4) =      6.16733  eV     2   --> E    G_5 D_5   
     e(  5 -  5) =      8.71263  eV     1   --> A_1  G_1 D_1   
     e(  6 -  7) =      8.73552  eV     2   --> E    G_5 D_5   
     e(  8 -  8) =      9.52209  eV     1   --> B_2  G_4 D_2'  
     e(  9 -  9) =     13.91857  eV     1   --> B_2  G_4 D_2'  
     e( 10 - 10) =     13.92973  eV     1   -->   ?

 **************************************************************************

 **************************************************************************

                    xk=(   0.00000,   0.00000,   0.05000  )

     Band symmetry, C_4v (4mm)  point group:

     e(  1 -  1) =     -5.86382  eV     1   --> A_1  G_1 D_1   
     e(  2 -  2) =      6.10430  eV     1   --> B_2  G_4 D_2'  
     e(  3 -  4) =      6.13155  eV     2   --> E    G_5 D_5   
     e(  5 -  5) =      8.69096  eV     1   --> A_1  G_1 D_1   
     e(  6 -  7) =      8.78136  eV     2   --> E    G_5 D_5   
     e(  8 -  8) =      9.57690  eV     1   --> B_2  G_4 D_2'  
     e(  9 -  9) =     13.84820  eV     1   --> B_2  G_4 D_2'  
     e( 10 - 10) =     13.95498  eV     1   --> A_2  G_2 D_1'  

 **************************************************************************

 **************************************************************************

                    xk=(   0.00000,   0.00000,   0.07500  )

     Band symmetry, C_4v (4mm)  point group:

     e(  1 -  1) =     -5.84999  eV     1   --> A_1  G_1 D_1   
     e(  2 -  2) =      6.01480  eV     1   --> B_2  G_4 D_2'  
     e(  3 -  4) =      6.07468  eV     2   --> E    G_5 D_5   
     e(  5 -  5) =      8.65562  eV     1   --> A_1  G_1 D_1   
     e(  6 -  7) =      8.85498  eV     2   --> E    G_5 D_5   
     e(  8 -  8) =      9.66355  eV     1   --> B_2  G_4 D_2'  
     e(  9 -  9) =     13.73788  eV     1   --> B_2  G_4 D_2'  
     e( 10 - 10) =     13.97023  eV     1   --> A_2  G_2 D_1'  

 **************************************************************************

 **************************************************************************

                    xk=(   0.00000,   0.00000,   0.10000  )

     Band symmetry, C_4v (4mm)  point group:

     e(  1 -  1) =     -5.83063  eV     1   --> A_1  G_1 D_1   
     e(  2 -  2) =      5.89678  eV     1   --> B_2  G_4 D_2'  
     e(  3 -  4) =      6.00010  eV     2   --> E    G_5 D_5   
     e(  5 -  5) =      8.60767  eV     1   --> A_1  G_1 D_1   
     e(  6 -  7) =      8.95298  eV     2   --> E    G_5 D_5   
     e(  8 -  8) =      9.77605  eV     1   --> B_2  G_4 D_2'  
     e(  9 -  9) =     13.59620  eV     1   --> B_2  G_4 D_2'  
     e( 10 - 10) =     13.99157  eV     1   --> A_2  G_2 D_1'  

 **************************************************************************

 **************************************************************************

                    xk=(   0.00000,   0.00000,   0.12500  )

     Band symmetry, C_4v (4mm)  point group:

     e(  1 -  1) =     -5.80576  eV     1   --> A_1  G_1 D_1   
     e(  2 -  2) =      5.75536  eV     1   --> B_2  G_4 D_2'  
     e(  3 -  4) =      5.91144  eV     2   --> E    G_5 D_5   
     e(  5 -  5) =      8.54847  eV     1   --> A_1  G_1 D_1   
     e(  6 -  7) =      9.07171  eV     2   --> E    G_5 D_5   
     e(  8 -  8) =      9.90745  eV     1   --> B_2  G_4 D_2'  
     e(  9 -  9) =     13.43277  eV     1   --> B_2  G_4 D_2'  
     e( 10 - 10) =     14.01900  eV     1   --> A_2  G_2 D_1'  

 **************************************************************************

 **************************************************************************

                    xk=(   0.00000,   0.00000,   0.15000  )

     Band symmetry, C_4v (4mm)  point group:

     e(  1 -  1) =     -5.77538  eV     1   --> A_1  G_1 D_1   
     e(  2 -  2) =      5.59527  eV     1   --> B_2  G_4 D_2'  
     e(  3 -  4) =      5.81210  eV     2   --> E    G_5 D_5   
     e(  5 -  5) =      8.47954  eV     1   --> A_1  G_1 D_1   
     e(  6 -  7) =      9.20771  eV     2   --> E    G_5 D_5   
     e(  8 -  8) =     10.05015  eV     1   --> B_2  G_4 D_2'  
     e(  9 -  9) =     13.25755  eV     1   --> B_2  G_4 D_2'  
     e( 10 - 10) =     14.05253  eV     1   --> A_2  G_2 D_1'  

 **************************************************************************

 **************************************************************************

                    xk=(   0.00000,   0.00000,   0.17500  )

     Band symmetry, C_4v (4mm)  point group:

     e(  1 -  1) =     -5.73949  eV     1   --> A_1  G_1 D_1   
     e(  2 -  2) =      5.42050  eV     1   --> B_2  G_4 D_2'  
     e(  3 -  4) =      5.70503  eV     2   --> E    G_5 D_5   
     e(  5 -  5) =      8.40246  eV     1   --> A_1  G_1 D_1   
     e(  6 -  7) =      9.35800  eV     2   --> E    G_5 D_5   
     e(  8 -  8) =     10.19574  eV     1   --> B_2  G_4 D_2'  
     e(  9 -  9) =     13.08093  eV     1   --> B_2  G_4 D_2'  
     e( 10 - 10) =     14.09216  eV     1   --> A_2  G_2 D_1'  

 **************************************************************************

 **************************************************************************

                    xk=(   0.00000,   0.00000,   0.20000  )

     Band symmetry, C_4v (4mm)  point group:

     e(  1 -  1) =     -5.69812  eV     1   --> A_1  G_1 D_1   
     e(  2 -  2) =      5.23430  eV     1   --> B_2  G_4 D_2'  
     e(  3 -  4) =      5.59265  eV     2   --> E    G_5 D_5   
     e(  5 -  5) =      8.31878  eV     1   --> A_1  G_1 D_1   
     e(  6 -  7) =      9.52010  eV     2   --> E    G_5 D_5   
     e(  8 -  8) =     10.33423  eV     1   --> B_2  G_4 D_2'  
     e(  9 -  9) =     12.91451  eV     1   --> B_2  G_4 D_2'  
     e( 10 - 10) =     14.13787  eV     1   --> A_2  G_2 D_1'  

 **************************************************************************

 **************************************************************************

                    xk=(   0.00000,   0.00000,   0.22500  )

     Band symmetry, C_4v (4mm)  point group:

     e(  1 -  1) =     -5.65128  eV     1   --> A_1  G_1 D_1   
     e(  2 -  2) =      5.03920  eV     1   --> B_2  G_4 D_2'  
     e(  3 -  4) =      5.47693  eV     2   --> E    G_5 D_5   
     e(  5 -  5) =      8.22999  eV     1   --> A_1  G_1 D_1   
     e(  6 -  7) =      9.69200  eV     2   --> E    G_5 D_5   
     e(  8 -  8) =     10.45317  eV     1   --> B_2  G_4 D_2'  
     e(  9 -  9) =     12.77204  eV     1   --> B_2  G_4 D_2'  
     e( 10 - 10) =     14.18966  eV     1   --> A_2  G_2 D_1'  

 **************************************************************************

 **************************************************************************

                    xk=(   0.00000,   0.00000,   0.25000  )

     Band symmetry, C_4v (4mm)  point group:

     e(  1 -  1) =     -5.59898  eV     1   --> A_1  G_1 D_1   
     e(  2 -  2) =      4.83715  eV     1   --> B_2  G_4 D_2'  
     e(  3 -  4) =      5.35940  eV     2   --> E    G_5 D_5   
     e(  5 -  5) =      8.13746  eV     1   --> A_1  G_1 D_1   
     e(  6 -  7) =      9.87209  eV     2   --> E    G_5 D_5   
     e(  8 -  8) =     10.53743  eV     1   --> B_2  G_4 D_2'  
     e(  9 -  9) =     12.66972  eV     1   --> B_2  G_4 D_2'  
     e( 10 - 10) =     14.24754  eV     1   --> A_2  G_2 D_1'  

 **************************************************************************

 **************************************************************************

                    xk=(   0.00000,   0.00000,   0.27500  )

     Band symmetry, C_4v (4mm)  point group:

     e(  1 -  1) =     -5.54124  eV     1   --> A_1  G_1 D_1   
     e(  2 -  2) =      4.62966  eV     1   --> B_2  G_4 D_2'  
     e(  3 -  4) =      5.24130  eV     2   --> E    G_5 D_5   
     e(  5 -  5) =      8.04245  eV     1   --> A_1  G_1 D_1   
     e(  6 -  7) =     10.05908  eV     2   --> E    G_5 D_5   
     e(  8 -  8) =     10.57169  eV     1   --> B_2  G_4 D_2'  
     e(  9 -  9) =     12.62369  eV     1   --> B_2  G_4 D_2'  
     e( 10 - 10) =     14.31150  eV     1   --> A_2  G_2 D_1'  

 **************************************************************************

 **************************************************************************

                    xk=(   0.00000,   0.00000,   0.30000  )

     Band symmetry, C_4v (4mm)  point group:

     e(  1 -  1) =     -5.47808  eV     1   --> A_1  G_1 D_1   
     e(  2 -  2) =      4.41790  eV     1   --> B_2  G_4 D_2'  
     e(  3 -  4) =      5.12360  eV     2   --> E    G_5 D_5   
     e(  5 -  5) =      7.94605  eV     1   --> A_1  G_1 D_1   
     e(  6 -  7) =     10.25195  eV     2   --> E    G_5 D_5   
     e(  8 -  8) =     10.54676  eV     1   --> B_2  G_4 D_2'  
     e(  9 -  9) =     12.64381  eV     1   --> B_2  G_4 D_2'  
     e( 10 - 10) =     14.38154  eV     1   --> A_2  G_2 D_1'  

 **************************************************************************

 **************************************************************************

                    xk=(   0.00000,   0.00000,   0.32500  )

     Band symmetry, C_4v (4mm)  point group:

     e(  1 -  1) =     -5.40953  eV     1   --> A_1  G_1 D_1   
     e(  2 -  2) =      4.20276  eV     1   --> B_2  G_4 D_2'  
     e(  3 -  4) =      5.00707  eV     2   --> E    G_5 D_5   
     e(  5 -  5) =      7.84925  eV     1   --> A_1  G_1 D_1   
     e(  6 -  7) =     10.44984  eV     2   --> E    G_5 D_5   
     e(  8 -  8) =     10.46492  eV     1   --> B_2  G_4 D_2'  
     e(  9 -  9) =     12.72837  eV     1   --> B_2  G_4 D_2'  
     e( 10 - 10) =     14.45764  eV     1   --> A_2  G_2 D_1'  

 **************************************************************************

 **************************************************************************

                    xk=(   0.00000,   0.00000,   0.35000  )

     Band symmetry, C_4v (4mm)  point group:

     e(  1 -  1) =     -5.33561  eV     1   --> A_1  G_1 D_1   
     e(  2 -  2) =      3.98494  eV     1   --> B_2  G_4 D_2'  
     e(  3 -  4) =      4.89233  eV     2   --> E    G_5 D_5   
     e(  5 -  5) =      7.75291  eV     1   --> A_1  G_1 D_1   
     e(  6 -  6) =     10.33772  eV     1   --> B_2  G_4 D_2'  
     e(  7 -  8) =     10.65208  eV     2   --> E    G_5 D_5   
     e(  9 -  9) =     12.86618  eV     1   --> B_2  G_4 D_2'  
     e( 10 - 10) =     14.53982  eV     1   --> A_2  G_2 D_1'  

 **************************************************************************

 **************************************************************************

                    xk=(   0.00000,   0.00000,   0.37500  )

     Band symmetry, C_4v (4mm)  point group:

     e(  1 -  1) =     -5.25635  eV     1   --> A_1  G_1 D_1   
     e(  2 -  2) =      3.76499  eV     1   --> B_2  G_4 D_2'  
     e(  3 -  4) =      4.77989  eV     2   --> E    G_5 D_5   
     e(  5 -  5) =      7.65779  eV     1   --> A_1  G_1 D_1   
     e(  6 -  6) =     10.17915  eV     1   --> B_2  G_4 D_2'  
     e(  7 -  8) =     10.85811  eV     2   --> E    G_5 D_5   
     e(  9 -  9) =     13.04359  eV     1   --> B_2  G_4 D_2'  
     e( 10 - 10) =     14.62805  eV     1   --> A_2  G_2 D_1'  

 **************************************************************************

 **************************************************************************

                    xk=(   0.00000,   0.00000,   0.40000  )

     Band symmetry, C_4v (4mm)  point group:

     e(  1 -  1) =     -5.17178  eV     1   --> A_1  G_1 D_1   
     e(  2 -  2) =      3.54336  eV     1   --> B_2  G_4 D_2'  
     e(  3 -  4) =      4.67017  eV     2   --> E    G_5 D_5   
     e(  5 -  5) =      7.56455  eV     1   --> A_1  G_1 D_1   
     e(  6 -  6) =     10.00097  eV     1   --> B_2  G_4 D_2'  
     e(  7 -  8) =     11.06746  eV     2   --> E    G_5 D_5   
     e(  9 -  9) =     13.24903  eV     1   --> B_2  G_4 D_2'  
     e( 10 - 10) =     14.72233  eV     1   --> A_2  G_2 D_1'  

 **************************************************************************

 **************************************************************************

                    xk=(   0.00000,   0.00000,   0.42500  )

     Band symmetry, C_4v (4mm)  point group:

     e(  1 -  1) =     -5.08194  eV     1   --> A_1  G_1 D_1   
     e(  2 -  2) =      3.32039  eV     1   --> B_2  G_4 D_2'  
     e(  3 -  4) =      4.56350  eV     2   --> E    G_5 D_5   
     e(  5 -  5) =      7.47377  eV     1   --> A_1  G_1 D_1   
     e(  6 -  6) =      9.81170  eV     1   --> B_2  G_4 D_2'  
     e(  7 -  8) =     11.27974  eV     2   --> E    G_5 D_5   
     e(  9 -  9) =     13.47412  eV     1   --> B_2  G_4 D_2'  
     e( 10 - 10) =     14.82267  eV     1   --> A_2  G_2 D_1'  

 **************************************************************************

 **************************************************************************

                    xk=(   0.00000,   0.00000,   0.45000  )

     Band symmetry, C_4v (4mm)  point group:

     e(  1 -  1) =     -4.98685  eV     1   --> A_1  G_1 D_1   
     e(  2 -  2) =      3.09639  eV     1   --> B_2  G_4 D_2'  
     e(  3 -  4) =      4.46017  eV     2   --> E    G_5 D_5   
     e(  5 -  5) =      7.38595  eV     1   --> A_1  G_1 D_1   
     e(  6 -  6) =      9.61715  eV     1   --> B_2  G_4 D_2'  
     e(  7 -  8) =     11.49463  eV     2   --> E    G_5 D_5   
     e(  9 -  9) =     13.71308  eV     1   --> B_2  G_4 D_2'  
     e( 10 - 10) =     14.92905  eV     1   --> A_2  G_2 D_1'  

 **************************************************************************

 **************************************************************************

                    xk=(   0.00000,   0.00000,   0.47500  )

     Band symmetry, C_4v (4mm)  point group:

     e(  1 -  1) =     -4.88655  eV     1   --> A_1  G_1 D_1   
     e(  2 -  2) =      2.87161  eV     1   --> B_2  G_4 D_2'  
     e(  3 -  4) =      4.36042  eV     2   --> E    G_5 D_5   
     e(  5 -  5) =      7.30153  eV     1   --> A_1  G_1 D_1   
     e(  6 -  6) =      9.42130  eV     1   --> B_2  G_4 D_2'  
     e(  7 -  8) =     11.71186  eV     2   --> E    G_5 D_5   
     e(  9 -  9) =     13.96192  eV     1   --> B_2  G_4 D_2'  
     e( 10 - 10) =     15.04146  eV     1   --> A_2  G_2 D_1'  

 **************************************************************************

 **************************************************************************

                    xk=(   0.00000,   0.00000,   0.50000  )

     Band symmetry, C_4v (4mm)  point group:

     e(  1 -  1) =     -4.78110  eV     1   --> A_1  G_1 D_1   
     e(  2 -  2) =      2.64628  eV     1   --> B_2  G_4 D_2'  
     e(  3 -  4) =      4.26445  eV     2   --> E    G_5 D_5   
     e(  5 -  5) =      7.22092  eV     1   --> A_1  G_1 D_1   
     e(  6 -  6) =      9.22688  eV     1   --> B_2  G_4 D_2'  
     e(  7 -  8) =     11.93120  eV     2   --> E    G_5 D_5   
     e(  9 -  9) =     14.21783  eV     1   --> B_2  G_4 D_2'  
     e( 10 - 10) =     15.15989  eV     1   --> A_2  G_2 D_1'  

 **************************************************************************

 **************************************************************************

                    xk=(   0.00000,   0.00000,   0.52500  )

     Band symmetry, C_4v (4mm)  point group:

     e(  1 -  1) =     -4.67053  eV     1   --> A_1  G_1 D_1   
     e(  2 -  2) =      2.42060  eV     1   --> B_2  G_4 D_2'  
     e(  3 -  4) =      4.17243  eV     2   --> E    G_5 D_5   
     e(  5 -  5) =      7.14446  eV     1   --> A_1  G_1 D_1   
     e(  6 -  6) =      9.03580  eV     1   --> B_2  G_4 D_2'  
     e(  7 -  8) =     12.15247  eV     2   --> E    G_5 D_5   
     e(  9 -  9) =     14.47873  eV     1   --> B_2  G_4 D_2'  
     e( 10 - 10) =     15.28434  eV     1   --> A_2  G_2 D_1'  

 **************************************************************************

 **************************************************************************

                    xk=(   0.00000,   0.00000,   0.55000  )

     Band symmetry, C_4v (4mm)  point group:

     e(  1 -  1) =     -4.55489  eV     1   --> A_1  G_1 D_1   
     e(  2 -  2) =      2.19477  eV     1   --> B_2  G_4 D_2'  
     e(  3 -  4) =      4.08451  eV     2   --> E    G_5 D_5   
     e(  5 -  5) =      7.07246  eV     1   --> A_1  G_1 D_1   
     e(  6 -  6) =      8.84944  eV     1   --> B_2  G_4 D_2'  
     e(  7 -  8) =     12.37552  eV     2   --> E    G_5 D_5   
     e(  9 -  9) =     14.74305  eV     1   --> B_2  G_4 D_2'  
     e( 10 - 10) =     15.41480  eV     1   --> A_2  G_2 D_1'  

 **************************************************************************

 **************************************************************************

                    xk=(   0.00000,   0.00000,   0.57500  )

     Band symmetry, C_4v (4mm)  point group:

     e(  1 -  1) =     -4.43423  eV     1   --> A_1  G_1 D_1   
     e(  2 -  2) =      1.96896  eV     1   --> B_2  G_4 D_2'  
     e(  3 -  4) =      4.00082  eV     2   --> E    G_5 D_5   
     e(  5 -  5) =      7.00520  eV     1   --> A_1  G_1 D_1   
     e(  6 -  6) =      8.66881  eV     1   --> B_2  G_4 D_2'  
     e(  7 -  8) =     12.60021  eV     2   --> E    G_5 D_5   
     e(  9 -  9) =     15.00956  eV     1   --> B_2  G_4 D_2'  
     e( 10 - 10) =     15.55126  eV     1   --> A_2  G_2 D_1'  

 **************************************************************************

 **************************************************************************

                    xk=(   0.00000,   0.00000,   0.60000  )

     Band symmetry, C_4v (4mm)  point group:

     e(  1 -  1) =     -4.30861  eV     1   --> A_1  G_1 D_1   
     e(  2 -  2) =      1.74337  eV     1   --> B_2  G_4 D_2'  
     e(  3 -  4) =      3.92147  eV     2   --> E    G_5 D_5   
     e(  5 -  5) =      6.94293  eV     1   --> A_1  G_1 D_1   
     e(  6 -  6) =      8.49463  eV     1   --> B_2  G_4 D_2'  
     e(  7 -  8) =     12.82644  eV     2   --> E    G_5 D_5   
     e(  9 -  9) =     15.27721  eV     1   --> B_2  G_4 D_2'  
     e( 10 - 10) =     15.69370  eV     1   --> A_2  G_2 D_1'  

 **************************************************************************

 **************************************************************************

                    xk=(   0.00000,   0.00000,   0.62500  )

     Band symmetry, C_4v (4mm)  point group:

     e(  1 -  1) =     -4.17809  eV     1   --> A_1  G_1 D_1   
     e(  2 -  2) =      1.51818  eV     1   --> B_2  G_4 D_2'  
     e(  3 -  4) =      3.84655  eV     2   --> E    G_5 D_5   
     e(  5 -  5) =      6.88588  eV     1   --> A_1  G_1 D_1   
     e(  6 -  6) =      8.32746  eV     1   --> B_2  G_4 D_2'  
     e(  7 -  8) =     13.05413  eV     2   --> E    G_5 D_5   
     e(  9 -  9) =     15.54514  eV     1   --> B_2  G_4 D_2'  
     e( 10 - 10) =     15.84212  eV     1   --> A_2  G_2 D_1'  

 **************************************************************************

 **************************************************************************

                    xk=(   0.00000,   0.00000,   0.65000  )

     Band symmetry, C_4v (4mm)  point group:

     e(  1 -  1) =     -4.04272  eV     1   --> A_1  G_1 D_1   
     e(  2 -  2) =      1.29356  eV     1   --> B_2  G_4 D_2'  
     e(  3 -  4) =      3.77615  eV     2   --> E    G_5 D_5   
     e(  5 -  5) =      6.83426  eV     1   --> A_1  G_1 D_1   
     e(  6 -  6) =      8.16768  eV     1   --> B_2  G_4 D_2'  
     e(  7 -  8) =     13.28320  eV     2   --> E    G_5 D_5   
     e(  9 -  9) =     15.81259  eV     1   --> B_2  G_4 D_2'  
     e( 10 - 10) =     15.99650  eV     1   --> A_2  G_2 D_1'  

 **************************************************************************

 **************************************************************************

                    xk=(   0.00000,   0.00000,   0.67500  )

     Band symmetry, C_4v (4mm)  point group:

     e(  1 -  1) =     -3.90258  eV     1   --> A_1  G_1 D_1   
     e(  2 -  2) =      1.06970  eV     1   --> B_2  G_4 D_2'  
     e(  3 -  4) =      3.71035  eV     2   --> E    G_5 D_5   
     e(  5 -  5) =      6.78826  eV     1   --> A_1  G_1 D_1   
     e(  6 -  6) =      8.01561  eV     1   --> B_2  G_4 D_2'  
     e(  7 -  8) =     13.51358  eV     2   --> E    G_5 D_5   
     e(  9 -  9) =     16.07888  eV     1   --> B_2  G_4 D_2'  
     e( 10 - 10) =     16.15684  eV     1   --> A_2  G_2 D_1'  

 **************************************************************************

 **************************************************************************

                    xk=(   0.00000,   0.00000,   0.70000  )

     Band symmetry, C_4v (4mm)  point group:

     e(  1 -  1) =     -3.75774  eV     1   --> A_1  G_1 D_1   
     e(  2 -  2) =      0.84679  eV     1   --> B_2  G_4 D_2'  
     e(  3 -  4) =      3.64920  eV     2   --> E    G_5 D_5   
     e(  5 -  5) =      6.74806  eV     1   --> A_1  G_1 D_1   
     e(  6 -  6) =      7.87143  eV     1   --> B_2  G_4 D_2'  
     e(  7 -  8) =     13.74520  eV     2   --> E    G_5 D_5   
     e(  9 -  9) =     16.32310  eV     1   --> A_2  G_2 D_1'  
     e( 10 - 10) =     16.34340  eV     1   --> B_2  G_4 D_2'  

 **************************************************************************

 **************************************************************************

                    xk=(   0.00000,   0.00000,   0.72500  )

     Band symmetry, C_4v (4mm)  point group:

     e(  1 -  1) =     -3.60828  eV     1   --> A_1  G_1 D_1   
     e(  2 -  2) =      0.62502  eV     1   --> B_2  G_4 D_2'  
     e(  3 -  4) =      3.59276  eV     2   --> E    G_5 D_5   
     e(  5 -  5) =      6.71383  eV     1   --> A_1  G_1 D_1   
     e(  6 -  6) =      7.73530  eV     1   --> B_2  G_4 D_2'  
     e(  7 -  8) =     13.97797  eV     2   --> E    G_5 D_5   
     e(  9 -  9) =     16.49529  eV     1   --> A_2  G_2 D_1'  
     e( 10 - 10) =     16.60557  eV     1   --> B_2  G_4 D_2'  

 **************************************************************************

 **************************************************************************

                    xk=(   0.00000,   0.00000,   0.75000  )

     Band symmetry, C_4v (4mm)  point group:

     e(  1 -  1) =     -3.45427  eV     1   --> A_1  G_1 D_1   
     e(  2 -  2) =      0.40456  eV     1   --> B_2  G_4 D_2'  
     e(  3 -  4) =      3.54108  eV     2   --> E    G_5 D_5   
     e(  5 -  5) =      6.68573  eV     1   --> A_1  G_1 D_1   
     e(  6 -  6) =      7.60731  eV     1   --> B_2  G_4 D_2'  
     e(  7 -  8) =     14.21177  eV     2   --> E    G_5 D_5   
     e(  9 -  9) =     16.67338  eV     1   --> A_2  G_2 D_1'  
     e( 10 - 10) =     16.86484  eV     1   --> B_2  G_4 D_2'  

 **************************************************************************

 **************************************************************************

                    xk=(   0.00000,   0.00000,   0.77500  )

     Band symmetry, C_4v (4mm)  point group:

     e(  1 -  1) =     -3.29580  eV     1   --> A_1  G_1 D_1   
     e(  2 -  2) =      0.18563  eV     1   --> B_2  G_4 D_2'  
     e(  3 -  4) =      3.49421  eV     2   --> E    G_5 D_5   
     e(  5 -  5) =      6.66391  eV     1   --> A_1  G_1 D_1   
     e(  6 -  6) =      7.48749  eV     1   --> B_2  G_4 D_2'  
     e(  7 -  8) =     14.44644  eV     2   --> E    G_5 D_5   
     e(  9 -  9) =     16.85736  eV     1   --> A_2  G_2 D_1'  
     e( 10 - 10) =     17.12069  eV     1   --> B_2  G_4 D_2'  

 **************************************************************************

 **************************************************************************

                    xk=(   0.00000,   0.00000,   0.80000  )

     Band symmetry, C_4v (4mm)  point group:

     e(  1 -  1) =     -3.13296  eV     1   --> A_1  G_1 D_1   
     e(  2 -  2) =     -0.03160  eV     1   --> B_2  G_4 D_2'  
     e(  3 -  4) =      3.45218  eV     2   --> E    G_5 D_5   
     e(  5 -  5) =      6.64850  eV     1   --> A_1  G_1 D_1   
     e(  6 -  6) =      7.37586  eV     1   --> B_2  G_4 D_2'  
     e(  7 -  8) =     14.68173  eV     2   --> E    G_5 D_5   
     e(  9 -  9) =     17.04720  eV     1   --> A_2  G_2 D_1'  
     e( 10 - 10) =     17.37256  eV     1   --> B_2  G_4 D_2'  

 **************************************************************************

 **************************************************************************

                    xk=(   0.00000,   0.00000,   0.82500  )

     Band symmetry, C_4v (4mm)  point group:

     e(  1 -  1) =     -2.96586  eV     1   --> A_1  G_1 D_1   
     e(  2 -  2) =     -0.24694  eV     1   --> B_2  G_4 D_2'  
     e(  3 -  4) =      3.41502  eV     2   --> E    G_5 D_5   
     e(  5 -  5) =      6.63965  eV     1   --> A_1  G_1 D_1   
     e(  6 -  6) =      7.27240  eV     1   --> B_2  G_4 D_2'  
     e(  7 -  8) =     14.91722  eV     2   --> E    G_5 D_5   
     e(  9 -  9) =     17.24290  eV     1   --> A_2  G_2 D_1'  
     e( 10 - 10) =     17.61990  eV     1   --> B_2  G_4 D_2'  

 **************************************************************************

 **************************************************************************

                    xk=(   0.00000,   0.00000,   0.85000  )

     Band symmetry, C_4v (4mm)  point group:

     e(  1 -  1) =     -2.79459  eV     1   --> A_1  G_1 D_1   
     e(  2 -  2) =     -0.46019  eV     1   --> B_2  G_4 D_2'  
     e(  3 -  4) =      3.38276  eV     2   --> E    G_5 D_5   
     e(  5 -  5) =      6.63749  eV     1   --> A_1  G_1 D_1   
     e(  6 -  6) =      7.17707  eV     1   --> B_2  G_4 D_2'  
     e(  7 -  8) =     15.15223  eV     2   --> E    G_5 D_5   
     e(  9 -  9) =     17.44442  eV     1   --> A_2  G_2 D_1'  
     e( 10 - 10) =     17.86207  eV     1   --> B_2  G_4 D_2'  

 **************************************************************************

 **************************************************************************

                    xk=(   0.00000,   0.00000,   0.87500  )

     Band symmetry, C_4v (4mm)  point group:

     e(  1 -  1) =     -2.61926  eV     1   --> A_1  G_1 D_1   
     e(  2 -  2) =     -0.67118  eV     1   --> B_2  G_4 D_2'  
     e(  3 -  4) =      3.35543  eV     2   --> E    G_5 D_5   
     e(  5 -  5) =      6.64215  eV     1   --> A_1  G_1 D_1   
     e(  6 -  6) =      7.08983  eV     1   --> B_2  G_4 D_2'  
     e(  7 -  8) =     15.38559  eV     2   --> E    G_5 D_5   
     e(  9 -  9) =     17.65174  eV     1   --> A_2  G_2 D_1'  
     e( 10 - 10) =     18.06156  eV     1   -->   ?

 **************************************************************************

 **************************************************************************

                    xk=(   0.00000,   0.00000,   0.90000  )

     Band symmetry, C_4v (4mm)  point group:

     e(  1 -  1) =     -2.43998  eV     1   --> A_1  G_1 D_1   
     e(  2 -  2) =     -0.87972  eV     1   --> B_2  G_4 D_2'  
     e(  3 -  4) =      3.33305  eV     2   --> E    G_5 D_5   
     e(  5 -  5) =      6.65375  eV     1   --> A_1  G_1 D_1   
     e(  6 -  6) =      7.01059  eV     1   --> B_2  G_4 D_2'  
     e(  7 -  8) =     15.61510  eV     2   --> E    G_5 D_5   
     e(  9 - 10) =     17.82709  eV     2   --> E    G_5 D_5   

 **************************************************************************

 **************************************************************************

                    xk=(   0.00000,   0.00000,   0.92500  )

     Band symmetry, C_4v (4mm)  point group:

     e(  1 -  1) =     -2.25689  eV     1   --> A_1  G_1 D_1   
     e(  2 -  2) =     -1.08564  eV     1   --> B_2  G_4 D_2'  
     e(  3 -  4) =      3.31562  eV     2   --> E    G_5 D_5   
     e(  5 -  5) =      6.67241  eV     1   --> A_1  G_1 D_1   
     e(  6 -  6) =      6.93929  eV     1   --> B_2  G_4 D_2'  
     e(  7 -  8) =     15.83628  eV     2   --> E    G_5 D_5   
     e(  9 - 10) =     17.60090  eV     2   --> E    G_5 D_5   

 **************************************************************************

 **************************************************************************

                    xk=(   0.00000,   0.00000,   0.95000  )

     Band symmetry, C_4v (4mm)  point group:

     e(  1 -  1) =     -2.07010  eV     1   --> A_1  G_1 D_1   
     e(  2 -  2) =     -1.28876  eV     1   --> B_2  G_4 D_2'  
     e(  3 -  4) =      3.30316  eV     2   --> E    G_5 D_5   
     e(  5 -  5) =      6.69826  eV     1   --> A_1  G_1 D_1   
     e(  6 -  6) =      6.87581  eV     1   --> B_2  G_4 D_2'  
     e(  7 -  8) =     16.03906  eV     2   --> E    G_5 D_5   
     e(  9 - 10) =     17.39398  eV     2   --> E    G_5 D_5   

 **************************************************************************

 **************************************************************************

                    xk=(   0.00000,   0.00000,   0.97500  )

     Band symmetry, C_4v (4mm)  point group:

     e(  1 -  1) =     -1.87974  eV     1   --> A_1  G_1 D_1   
     e(  2 -  2) =     -1.48893  eV     1   --> B_2  G_4 D_2'  
     e(  3 -  4) =      3.29568  eV     2   --> E    G_5 D_5   
     e(  5 -  5) =      6.73141  eV     1   --> A_1  G_1 D_1   
     e(  6 -  6) =      6.82008  eV     1   --> B_2  G_4 D_2'  
     e(  7 -  8) =     16.19887  eV     2   --> E    G_5 D_5   
     e(  9 - 10) =     17.23146  eV     2   --> E    G_5 D_5   

 **************************************************************************

 **************************************************************************

                    xk=(   0.00000,   0.00000,   1.00000  )

     zone border point and non-symmorphic group 
     symmetry decomposition not available

 **************************************************************************

 **************************************************************************

                    xk=(  -0.00000,   0.01250,   1.00000  )

     zone border point and non-symmorphic group 
     symmetry decomposition not available

 **************************************************************************

 **************************************************************************

                    xk=(  -0.00000,   0.02500,   1.00000  )

     zone border point and non-symmorphic group 
     symmetry decomposition not available

 **************************************************************************

 **************************************************************************

                    xk=(   0.00000,   0.03750,   1.00000  )

     zone border point and non-symmorphic group 
     symmetry decomposition not available

 **************************************************************************

 **************************************************************************

                    xk=(   0.00000,   0.05000,   1.00000  )

     zone border point and non-symmorphic group 
     symmetry decomposition not available

 **************************************************************************

 **************************************************************************

                    xk=(   0.00000,   0.06250,   1.00000  )

     zone border point and non-symmorphic group 
     symmetry decomposition not available

 **************************************************************************

 **************************************************************************

                    xk=(  -0.00000,   0.07500,   1.00000  )

     zone border point and non-symmorphic group 
     symmetry decomposition not available

 **************************************************************************

 **************************************************************************

                    xk=(  -0.00000,   0.08750,   1.00000  )

     zone border point and non-symmorphic group 
     symmetry decomposition not available

 **************************************************************************

 **************************************************************************

                    xk=(   0.00000,   0.10000,   1.00000  )

     zone border point and non-symmorphic group 
     symmetry decomposition not available

 **************************************************************************

 **************************************************************************

                    xk=(   0.00000,   0.11250,   1.00000  )

     zone border point and non-symmorphic group 
     symmetry decomposition not available

 **************************************************************************

 **************************************************************************

                    xk=(   0.00000,   0.12500,   1.00000  )

     zone border point and non-symmorphic group 
     symmetry decomposition not available

 **************************************************************************

 **************************************************************************

                    xk=(  -0.00000,   0.13750,   1.00000  )

     zone border point and non-symmorphic group 
     symmetry decomposition not available

 **************************************************************************

 **************************************************************************

                    xk=(  -0.00000,   0.15000,   1.00000  )

     zone border point and non-symmorphic group 
     symmetry decomposition not available

 **************************************************************************

 **************************************************************************

                    xk=(   0.00000,   0.16250,   1.00000  )

     zone border point and non-symmorphic group 
     symmetry decomposition not available

 **************************************************************************

 **************************************************************************

                    xk=(   0.00000,   0.17500,   1.00000  )

     zone border point and non-symmorphic group 
     symmetry decomposition not available

 **************************************************************************

 **************************************************************************

                    xk=(   0.00000,   0.18750,   1.00000  )

     zone border point and non-symmorphic group 
     symmetry decomposition not available

 **************************************************************************

 **************************************************************************

                    xk=(  -0.00000,   0.20000,   1.00000  )

     zone border point and non-symmorphic group 
     symmetry decomposition not available

 **************************************************************************

 **************************************************************************

                    xk=(  -0.00000,   0.21250,   1.00000  )

     zone border point and non-symmorphic group 
     symmetry decomposition not available

 **************************************************************************

 **************************************************************************

                    xk=(   0.00000,   0.22500,   1.00000  )

     zone border point and non-symmorphic group 
     symmetry decomposition not available

 **************************************************************************

 **************************************************************************

                    xk=(   0.00000,   0.23750,   1.00000  )

     zone border point and non-symmorphic group 
     symmetry decomposition not available

 **************************************************************************

 **************************************************************************

                    xk=(   0.00000,   0.25000,   1.00000  )

     zone border point and non-symmorphic group 
     symmetry decomposition not available

 **************************************************************************

 **************************************************************************

                    xk=(  -0.00000,   0.26250,   1.00000  )

     zone border point and non-symmorphic group 
     symmetry decomposition not available

 **************************************************************************

 **************************************************************************

                    xk=(  -0.00000,   0.27500,   1.00000  )

     zone border point and non-symmorphic group 
     symmetry decomposition not available

 **************************************************************************

 **************************************************************************

                    xk=(   0.00000,   0.28750,   1.00000  )

     zone border point and non-symmorphic group 
     symmetry decomposition not available

 **************************************************************************

 **************************************************************************

                    xk=(   0.00000,   0.30000,   1.00000  )

     zone border point and non-symmorphic group 
     symmetry decomposition not available

 **************************************************************************

 **************************************************************************

                    xk=(   0.00000,   0.31250,   1.00000  )

     zone border point and non-symmorphic group 
     symmetry decomposition not available

 **************************************************************************

 **************************************************************************

                    xk=(  -0.00000,   0.32500,   1.00000  )

     zone border point and non-symmorphic group 
     symmetry decomposition not available

 **************************************************************************

 **************************************************************************

                    xk=(  -0.00000,   0.33750,   1.00000  )

     zone border point and non-symmorphic group 
     symmetry decomposition not available

 **************************************************************************

 **************************************************************************

                    xk=(   0.00000,   0.35000,   1.00000  )

     zone border point and non-symmorphic group 
     symmetry decomposition not available

 **************************************************************************

 **************************************************************************

                    xk=(   0.00000,   0.36250,   1.00000  )

     zone border point and non-symmorphic group 
     symmetry decomposition not available

 **************************************************************************

 **************************************************************************

                    xk=(   0.00000,   0.37500,   1.00000  )

     zone border point and non-symmorphic group 
     symmetry decomposition not available

 **************************************************************************

 **************************************************************************

                    xk=(  -0.00000,   0.38750,   1.00000  )

     zone border point and non-symmorphic group 
     symmetry decomposition not available

 **************************************************************************

 **************************************************************************

                    xk=(  -0.00000,   0.40000,   1.00000  )

     zone border point and non-symmorphic group 
     symmetry decomposition not available

 **************************************************************************

 **************************************************************************

                    xk=(   0.00000,   0.41250,   1.00000  )

     zone border point and non-symmorphic group 
     symmetry decomposition not available

 **************************************************************************

 **************************************************************************

                    xk=(   0.00000,   0.42500,   1.00000  )

     zone border point and non-symmorphic group 
     symmetry decomposition not available

 **************************************************************************

 **************************************************************************

                    xk=(   0.00000,   0.43750,   1.00000  )

     zone border point and non-symmorphic group 
     symmetry decomposition not available

 **************************************************************************

 **************************************************************************

                    xk=(  -0.00000,   0.45000,   1.00000  )

     zone border point and non-symmorphic group 
     symmetry decomposition not available

 **************************************************************************

 **************************************************************************

                    xk=(  -0.00000,   0.46250,   1.00000  )

     zone border point and non-symmorphic group 
     symmetry decomposition not available

 **************************************************************************

 **************************************************************************

                    xk=(   0.00000,   0.47500,   1.00000  )

     zone border point and non-symmorphic group 
     symmetry decomposition not available

 **************************************************************************

 **************************************************************************

                    xk=(   0.00000,   0.48750,   1.00000  )

     zone border point and non-symmorphic group 
     symmetry decomposition not available

 **************************************************************************

 **************************************************************************

                    xk=(   0.00000,   0.50000,   1.00000  )

     zone border point and non-symmorphic group 
     symmetry decomposition not available

 **************************************************************************

 **************************************************************************

                    xk=(  -0.01875,   0.50625,   0.97500  )

     point group C_1 (1)    
     there are  1 classes
     the character table:

       E    
A      1.00

     the symmetry operations in each class and the name of the first element:

     E        1
                                                                 

     Band symmetry, C_1 (1)     point group:

     e(  1 -  1) =     -1.65821  eV     1   --> A              
     e(  2 -  2) =     -1.37142  eV     1   --> A              
     e(  3 -  3) =      2.14640  eV     1   --> A              
     e(  4 -  4) =      2.36790  eV     1   --> A              
     e(  5 -  5) =     10.23263  eV     1   --> A              
     e(  6 -  6) =     10.45756  eV     1   --> A              
     e(  7 -  7) =     11.08617  eV     1   --> A              
     e(  8 -  8) =     11.30475  eV     1   --> A              
     e(  9 -  9) =     16.45520  eV     1   --> A              
     e( 10 - 10) =     16.97870  eV     1   --> A              

 **************************************************************************

 **************************************************************************

                    xk=(  -0.03750,   0.51250,   0.95000  )

     Band symmetry, C_1 (1)     point group:

     e(  1 -  1) =     -1.80250  eV     1   --> A              
     e(  2 -  2) =     -1.23593  eV     1   --> A              
     e(  3 -  3) =      2.06183  eV     1   --> A              
     e(  4 -  4) =      2.50187  eV     1   --> A              
     e(  5 -  5) =     10.04263  eV     1   --> A              
     e(  6 -  6) =     10.47963  eV     1   --> A              
     e(  7 -  7) =     11.12022  eV     1   --> A              
     e(  8 -  8) =     11.49365  eV     1   --> A              
     e(  9 -  9) =     16.11014  eV     1   --> A              
     e( 10 - 10) =     17.14014  eV     1   --> A              

 **************************************************************************

 **************************************************************************

                    xk=(  -0.05625,   0.51875,   0.92500  )

     Band symmetry, C_1 (1)     point group:

     e(  1 -  1) =     -1.94468  eV     1   --> A              
     e(  2 -  2) =     -1.10969  eV     1   --> A              
     e(  3 -  3) =      1.99820  eV     1   --> A              
     e(  4 -  4) =      2.64858  eV     1   --> A              
     e(  5 -  5) =      9.83136  eV     1   --> A              
     e(  6 -  6) =     10.45931  eV     1   --> A              
     e(  7 -  7) =     11.22804  eV     1   --> A              
     e(  8 -  8) =     11.70929  eV     1   --> A              
     e(  9 -  9) =     15.72445  eV     1   --> A              
     e( 10 - 10) =     17.22972  eV     1   --> A              

 **************************************************************************

 **************************************************************************

                    xk=(  -0.07500,   0.52500,   0.90000  )

     Band symmetry, C_1 (1)     point group:

     e(  1 -  1) =     -2.08345  eV     1   --> A              
     e(  2 -  2) =     -0.99560  eV     1   --> A              
     e(  3 -  3) =      1.95859  eV     1   --> A              
     e(  4 -  4) =      2.80584  eV     1   --> A              
     e(  5 -  5) =      9.61494  eV     1   --> A              
     e(  6 -  6) =     10.42285  eV     1   --> A              
     e(  7 -  7) =     11.37453  eV     1   --> A              
     e(  8 -  8) =     11.94441  eV     1   --> A              
     e(  9 -  9) =     15.30986  eV     1   --> A              
     e( 10 - 10) =     17.24885  eV     1   --> A              

 **************************************************************************

 **************************************************************************

                    xk=(  -0.09375,   0.53125,   0.87500  )

     Band symmetry, C_1 (1)     point group:

     e(  1 -  1) =     -2.21778  eV     1   --> A              
     e(  2 -  2) =     -0.89651  eV     1   --> A              
     e(  3 -  3) =      1.94592  eV     1   --> A              
     e(  4 -  4) =      2.97152  eV     1   --> A              
     e(  5 -  5) =      9.40225  eV     1   --> A              
     e(  6 -  6) =     10.38382  eV     1   --> A              
     e(  7 -  7) =     11.54160  eV     1   --> A              
     e(  8 -  8) =     12.19469  eV     1   --> A              
     e(  9 -  9) =     14.87639  eV     1   --> A              
     e( 10 - 10) =     17.20495  eV     1   --> A              

 **************************************************************************

 **************************************************************************

                    xk=(  -0.11250,   0.53750,   0.85000  )

     Band symmetry, C_1 (1)     point group:

     e(  1 -  1) =     -2.34681  eV     1   --> A              
     e(  2 -  2) =     -0.81474  eV     1   --> A              
     e(  3 -  3) =      1.96249  eV     1   --> A              
     e(  4 -  4) =      3.14341  eV     1   --> A              
     e(  5 -  5) =      9.19850  eV     1   --> A              
     e(  6 -  6) =     10.34743  eV     1   --> A              
     e(  7 -  7) =     11.72170  eV     1   --> A              
     e(  8 -  8) =     12.45714  eV     1   --> A              
     e(  9 -  9) =     14.43192  eV     1   --> A              
     e( 10 - 10) =     17.11090  eV     1   --> A              

 **************************************************************************

 **************************************************************************

                    xk=(  -0.13125,   0.54375,   0.82500  )

     Band symmetry, C_1 (1)     point group:

     e(  1 -  1) =     -2.46987  eV     1   --> A              
     e(  2 -  2) =     -0.75162  eV     1   --> A              
     e(  3 -  3) =      2.00955  eV     1   --> A              
     e(  4 -  4) =      3.31916  eV     1   --> A              
     e(  5 -  5) =      9.00725  eV     1   --> A              
     e(  6 -  6) =     10.31552  eV     1   --> A              
     e(  7 -  7) =     11.91141  eV     1   --> A              
     e(  8 -  8) =     12.72908  eV     1   --> A              
     e(  9 -  9) =     13.98298  eV     1   --> A              
     e( 10 - 10) =     16.98036  eV     1   --> A              

 **************************************************************************

 **************************************************************************

                    xk=(  -0.15000,   0.55000,   0.80000  )

     Band symmetry, C_1 (1)     point group:

     e(  1 -  1) =     -2.58640  eV     1   --> A              
     e(  2 -  2) =     -0.70718  eV     1   --> A              
     e(  3 -  3) =      2.08690  eV     1   --> A              
     e(  4 -  4) =      3.49620  eV     1   --> A              
     e(  5 -  5) =      8.83142  eV     1   --> A              
     e(  6 -  6) =     10.28855  eV     1   --> A              
     e(  7 -  7) =     12.10872  eV     1   --> A              
     e(  8 -  8) =     13.00468  eV     1   --> A              
     e(  9 -  9) =     13.53844  eV     1   --> A              
     e( 10 - 10) =     16.82399  eV     1   --> A              

 **************************************************************************

 **************************************************************************

                    xk=(  -0.16875,   0.55625,   0.77500  )

     Band symmetry, C_1 (1)     point group:

     e(  1 -  1) =     -2.69595  eV     1   --> A              
     e(  2 -  2) =     -0.68007  eV     1   --> A              
     e(  3 -  3) =      2.19285  eV     1   --> A              
     e(  4 -  4) =      3.67164  eV     1   --> A              
     e(  5 -  5) =      8.67373  eV     1   --> A              
     e(  6 -  6) =     10.26626  eV     1   --> A              
     e(  7 -  7) =     12.31095  eV     1   --> A              
     e(  8 -  8) =     13.05467  eV     1   --> A              
     e(  9 -  9) =     13.33103  eV     1   --> A              
     e( 10 - 10) =     16.64908  eV     1   --> A              

 **************************************************************************

 **************************************************************************

                    xk=(  -0.18750,   0.56250,   0.75000  )

     Band symmetry, C_1 (1)     point group:

     e(  1 -  1) =     -2.79815  eV     1   --> A              
     e(  2 -  2) =     -0.66791  eV     1   --> A              
     e(  3 -  3) =      2.32452  eV     1   --> A              
     e(  4 -  4) =      3.84224  eV     1   --> A              
     e(  5 -  5) =      8.53696  eV     1   --> A              
     e(  6 -  6) =     10.24786  eV     1   --> A              
     e(  7 -  7) =     12.48794  eV     1   --> A              
     e(  8 -  8) =     12.66264  eV     1   --> A              
     e(  9 -  9) =     13.60764  eV     1   --> A              
     e( 10 - 10) =     16.46078  eV     1   --> A              

 **************************************************************************

 **************************************************************************

                    xk=(  -0.20625,   0.56875,   0.72500  )

     Band symmetry, C_1 (1)     point group:

     e(  1 -  1) =     -2.89268  eV     1   --> A              
     e(  2 -  2) =     -0.66774  eV     1   --> A              
     e(  3 -  3) =      2.47819  eV     1   --> A              
     e(  4 -  4) =      4.00442  eV     1   --> A              
     e(  5 -  5) =      8.42402  eV     1   --> A              
     e(  6 -  6) =     10.23197  eV     1   --> A              
     e(  7 -  7) =     12.17634  eV     1   --> A              
     e(  8 -  8) =     12.75730  eV     1   --> A              
     e(  9 -  9) =     13.90247  eV     1   --> A              
     e( 10 - 10) =     16.26371  eV     1   --> A              

 **************************************************************************

 **************************************************************************

                    xk=(  -0.22500,   0.57500,   0.70000  )

     Band symmetry, C_1 (1)     point group:

     e(  1 -  1) =     -2.97930  eV     1   --> A              
     e(  2 -  2) =     -0.67647  eV     1   --> A              
     e(  3 -  3) =      2.64976  eV     1   --> A              
     e(  4 -  4) =      4.15439  eV     1   --> A              
     e(  5 -  5) =      8.33783  eV     1   --> A              
     e(  6 -  6) =     10.21634  eV     1   --> A              
     e(  7 -  7) =     11.75790  eV     1   --> A              
     e(  8 -  8) =     12.97320  eV     1   --> A              
     e(  9 -  9) =     14.19757  eV     1   --> A              
     e( 10 - 10) =     16.06364  eV     1   --> A              

 **************************************************************************

 **************************************************************************

                    xk=(  -0.24375,   0.58125,   0.67500  )

     Band symmetry, C_1 (1)     point group:

     e(  1 -  1) =     -3.05780  eV     1   --> A              
     e(  2 -  2) =     -0.69125  eV     1   --> A              
     e(  3 -  3) =      2.83492  eV     1   --> A              
     e(  4 -  4) =      4.28838  eV     1   --> A              
     e(  5 -  5) =      8.28103  eV     1   --> A              
     e(  6 -  6) =     10.19701  eV     1   --> A              
     e(  7 -  7) =     11.35275  eV     1   --> A              
     e(  8 -  8) =     13.19492  eV     1   --> A              
     e(  9 -  9) =     14.48409  eV     1   --> A              
     e( 10 - 10) =     15.87005  eV     1   --> A              

 **************************************************************************

 **************************************************************************

                    xk=(  -0.26250,   0.58750,   0.65000  )

     Band symmetry, C_1 (1)     point group:

     e(  1 -  1) =     -3.12800  eV     1   --> A              
     e(  2 -  2) =     -0.70957  eV     1   --> A              
     e(  3 -  3) =      3.02915  eV     1   --> A              
     e(  4 -  4) =      4.40314  eV     1   --> A              
     e(  5 -  5) =      8.25540  eV     1   --> A              
     e(  6 -  6) =     10.16560  eV     1   --> A              
     e(  7 -  7) =     10.97394  eV     1   --> A              
     e(  8 -  8) =     13.41699  eV     1   --> A              
     e(  9 -  9) =     14.74411  eV     1   --> A              
     e( 10 - 10) =     15.70235  eV     1   --> A              

 **************************************************************************

 **************************************************************************

                    xk=(  -0.28125,   0.59375,   0.62500  )

     Band symmetry, C_1 (1)     point group:

     e(  1 -  1) =     -3.18976  eV     1   --> A              
     e(  2 -  2) =     -0.72937  eV     1   --> A              
     e(  3 -  3) =      3.22752  eV     1   --> A              
     e(  4 -  4) =      4.49653  eV     1   --> A              
     e(  5 -  5) =      8.26103  eV     1   --> A              
     e(  6 -  6) =     10.10033  eV     1   --> A              
     e(  7 -  7) =     10.64620  eV     1   --> A              
     e(  8 -  8) =     13.63444  eV     1   --> A              
     e(  9 -  9) =     14.93148  eV     1   --> A              
     e( 10 - 10) =     15.60769  eV     1   --> A              

 **************************************************************************

 **************************************************************************

                    xk=(  -0.30000,   0.60000,   0.60000  )

     point group C_s (m)    
     there are  2 classes
     the character table:

       E     s    
A'     1.00  1.00
A''    1.00 -1.00

     the symmetry operations in each class and the name of the first element:

     E        1
                                                                 
     s        2
                                                                 

     Band symmetry, C_s (m)     point group:

     e(  1 -  1) =     -3.24295  eV     1   --> A'             
     e(  2 -  2) =     -0.74898  eV     1   --> A'             
     e(  3 -  3) =      3.42427  eV     1   --> A'             
     e(  4 -  4) =      4.56818  eV     1   --> A''            
     e(  5 -  5) =      8.29507  eV     1   --> A'             
     e(  6 -  6) =      9.95417  eV     1   --> A'             
     e(  7 -  7) =     10.42092  eV     1   --> A''            
     e(  8 -  8) =     13.83904  eV     1   --> A'             
     e(  9 -  9) =     14.97879  eV     1   --> A'             
     e( 10 - 10) =     15.65314  eV     1   --> A''            

 **************************************************************************

 **************************************************************************

                    xk=(  -0.31875,   0.60625,   0.57500  )

     point group C_1 (1)    
     there are  1 classes
     the character table:

       E    
A      1.00

     the symmetry operations in each class and the name of the first element:

     E        1
                                                                 

     Band symmetry, C_1 (1)     point group:

     e(  1 -  1) =     -3.28748  eV     1   --> A              
     e(  2 -  2) =     -0.76710  eV     1   --> A              
     e(  3 -  3) =      3.61219  eV     1   --> A              
     e(  4 -  4) =      4.62004  eV     1   --> A              
     e(  5 -  5) =      8.34975  eV     1   --> A              
     e(  6 -  6) =      9.72646  eV     1   --> A              
     e(  7 -  7) =     10.30690  eV     1   --> A              
     e(  8 -  8) =     14.01544  eV     1   --> A              
     e(  9 -  9) =     14.93391  eV     1   --> A              
     e( 10 - 10) =     15.79028  eV     1   --> A              

 **************************************************************************

 **************************************************************************

                    xk=(  -0.33750,   0.61250,   0.55000  )

     Band symmetry, C_1 (1)     point group:

     e(  1 -  1) =     -3.32326  eV     1   --> A              
     e(  2 -  2) =     -0.78272  eV     1   --> A              
     e(  3 -  3) =      3.78184  eV     1   --> A              
     e(  4 -  4) =      4.65666  eV     1   --> A              
     e(  5 -  5) =      8.40863  eV     1   --> A              
     e(  6 -  6) =      9.49939  eV     1   --> A              
     e(  7 -  7) =     10.23833  eV     1   --> A              
     e(  8 -  8) =     14.13799  eV     1   --> A              
     e(  9 -  9) =     14.90485  eV     1   --> A              
     e( 10 - 10) =     15.91746  eV     1   --> A              

 **************************************************************************

 **************************************************************************

                    xk=(  -0.35625,   0.61875,   0.52500  )

     Band symmetry, C_1 (1)     point group:

     e(  1 -  1) =     -3.35025  eV     1   --> A              
     e(  2 -  2) =     -0.79510  eV     1   --> A              
     e(  3 -  3) =      3.92121  eV     1   --> A              
     e(  4 -  4) =      4.68473  eV     1   --> A              
     e(  5 -  5) =      8.44224  eV     1   --> A              
     e(  6 -  6) =      9.34132  eV     1   --> A              
     e(  7 -  7) =     10.17701  eV     1   --> A              
     e(  8 -  8) =     14.18694  eV     1   --> A              
     e(  9 -  9) =     14.94205  eV     1   --> A              
     e( 10 - 10) =     15.99616  eV     1   --> A              

 **************************************************************************

 **************************************************************************

                    xk=(  -0.37500,   0.62500,   0.50000  )

     zone border point and non-symmorphic group 
     symmetry decomposition not available

 **************************************************************************

 **************************************************************************

                    xk=(  -0.39375,   0.63125,   0.47500  )

     point group C_1 (1)    
     there are  1 classes
     the character table:

       E    
A      1.00

     the symmetry operations in each class and the name of the first element:

     E        1
                                                                 

     Band symmetry, C_1 (1)     point group:

     e(  1 -  1) =     -3.37763  eV     1   --> A              
     e(  2 -  2) =     -0.80818  eV     1   --> A              
     e(  3 -  3) =      4.06172  eV     1   --> A              
     e(  4 -  4) =      4.73516  eV     1   --> A              
     e(  5 -  5) =      8.36204  eV     1   --> A              
     e(  6 -  6) =      9.35042  eV     1   --> A              
     e(  7 -  7) =     10.04228  eV     1   --> A              
     e(  8 -  8) =     14.16030  eV     1   --> A              
     e(  9 -  9) =     15.11560  eV     1   --> A              
     e( 10 - 10) =     16.04496  eV     1   --> A              

 **************************************************************************

 **************************************************************************

                    xk=(  -0.41250,   0.63750,   0.45000  )

     Band symmetry, C_1 (1)     point group:

     e(  1 -  1) =     -3.37797  eV     1   --> A              
     e(  2 -  2) =     -0.80837  eV     1   --> A              
     e(  3 -  3) =      4.05544  eV     1   --> A              
     e(  4 -  4) =      4.74947  eV     1   --> A              
     e(  5 -  5) =      8.31260  eV     1   --> A              
     e(  6 -  6) =      9.44756  eV     1   --> A              
     e(  7 -  7) =      9.98591  eV     1   --> A              
     e(  8 -  8) =     14.14570  eV     1   --> A              
     e(  9 -  9) =     15.16199  eV     1   --> A              
     e( 10 - 10) =     16.03496  eV     1   --> A              

 **************************************************************************

 **************************************************************************

                    xk=(  -0.43125,   0.64375,   0.42500  )

     Band symmetry, C_1 (1)     point group:

     e(  1 -  1) =     -3.36942  eV     1   --> A              
     e(  2 -  2) =     -0.80423  eV     1   --> A              
     e(  3 -  3) =      4.00579  eV     1   --> A              
     e(  4 -  4) =      4.74154  eV     1   --> A              
     e(  5 -  5) =      8.30923  eV     1   --> A              
     e(  6 -  6) =      9.50695  eV     1   --> A              
     e(  7 -  7) =      9.99127  eV     1   --> A              
     e(  8 -  8) =     14.14533  eV     1   --> A              
     e(  9 -  9) =     15.13838  eV     1   --> A              
     e( 10 - 10) =     16.00109  eV     1   --> A              

 **************************************************************************

 **************************************************************************

                    xk=(  -0.45000,   0.65000,   0.40000  )

     Band symmetry, C_1 (1)     point group:

     e(  1 -  1) =     -3.35196  eV     1   --> A              
     e(  2 -  2) =     -0.79593  eV     1   --> A              
     e(  3 -  3) =      3.91979  eV     1   --> A              
     e(  4 -  4) =      4.70539  eV     1   --> A              
     e(  5 -  5) =      8.36577  eV     1   --> A              
     e(  6 -  6) =      9.47066  eV     1   --> A              
     e(  7 -  7) =     10.10313  eV     1   --> A              
     e(  8 -  8) =     14.15792  eV     1   --> A              
     e(  9 -  9) =     15.02605  eV     1   --> A              
     e( 10 - 10) =     15.96647  eV     1   --> A              

 **************************************************************************

 **************************************************************************

                    xk=(  -0.46875,   0.65625,   0.37500  )

     Band symmetry, C_1 (1)     point group:

     e(  1 -  1) =     -3.32564  eV     1   --> A              
     e(  2 -  2) =     -0.78377  eV     1   --> A              
     e(  3 -  3) =      3.80171  eV     1   --> A              
     e(  4 -  4) =      4.64430  eV     1   --> A              
     e(  5 -  5) =      8.47874  eV     1   --> A              
     e(  6 -  6) =      9.37358  eV     1   --> A              
     e(  7 -  7) =     10.28538  eV     1   --> A              
     e(  8 -  8) =     14.17731  eV     1   --> A              
     e(  9 -  9) =     14.82911  eV     1   --> A              
     e( 10 - 10) =     15.96397  eV     1   --> A              

 **************************************************************************

 **************************************************************************

                    xk=(  -0.48750,   0.66250,   0.35000  )

     Band symmetry, C_1 (1)     point group:

     e(  1 -  1) =     -3.29050  eV     1   --> A              
     e(  2 -  2) =     -0.76825  eV     1   --> A              
     e(  3 -  3) =      3.65440  eV     1   --> A              
     e(  4 -  4) =      4.56735  eV     1   --> A              
     e(  5 -  5) =      8.62573  eV     1   --> A              
     e(  6 -  6) =      9.26943  eV     1   --> A              
     e(  7 -  7) =     10.49834  eV     1   --> A              
     e(  8 -  8) =     14.19220  eV     1   --> A              
     e(  9 -  9) =     14.57780  eV     1   --> A              
     e( 10 - 10) =     16.00040  eV     1   --> A              

 **************************************************************************

 **************************************************************************

                    xk=(  -0.50625,   0.66875,   0.32500  )

     Band symmetry, C_1 (1)     point group:

     e(  1 -  1) =     -3.24659  eV     1   --> A              
     e(  2 -  2) =     -0.75013  eV     1   --> A              
     e(  3 -  3) =      3.48144  eV     1   --> A              
     e(  4 -  4) =      4.48414  eV     1   --> A              
     e(  5 -  5) =      8.73744  eV     1   --> A              
     e(  6 -  6) =      9.23451  eV     1   --> A              
     e(  7 -  7) =     10.72581  eV     1   --> A              
     e(  8 -  8) =     14.15200  eV     1   --> A              
     e(  9 -  9) =     14.34391  eV     1   --> A              
     e( 10 - 10) =     16.06084  eV     1   --> A              

 **************************************************************************

 **************************************************************************

                    xk=(  -0.52500,   0.67500,   0.30000  )

     Band symmetry, C_1 (1)     point group:

     e(  1 -  1) =     -3.19402  eV     1   --> A              
     e(  2 -  2) =     -0.73041  eV     1   --> A              
     e(  3 -  3) =      3.28816  eV     1   --> A              
     e(  4 -  4) =      4.40152  eV     1   --> A              
     e(  5 -  5) =      8.70905  eV     1   --> A              
     e(  6 -  6) =      9.37216  eV     1   --> A              
     e(  7 -  7) =     10.96117  eV     1   --> A              
     e(  8 -  8) =     13.91294  eV     1   --> A              
     e(  9 -  9) =     14.28573  eV     1   --> A              
     e( 10 - 10) =     16.11745  eV     1   --> A              

 **************************************************************************

 **************************************************************************

                    xk=(  -0.54375,   0.68125,   0.27500  )

     Band symmetry, C_1 (1)     point group:

     e(  1 -  1) =     -3.13289  eV     1   --> A              
     e(  2 -  2) =     -0.71048  eV     1   --> A              
     e(  3 -  3) =      3.08140  eV     1   --> A              
     e(  4 -  4) =      4.32305  eV     1   --> A              
     e(  5 -  5) =      8.58664  eV     1   --> A              
     e(  6 -  6) =      9.63321  eV     1   --> A              
     e(  7 -  7) =     11.20120  eV     1   --> A              
     e(  8 -  8) =     13.60315  eV     1   --> A              
     e(  9 -  9) =     14.28480  eV     1   --> A              
     e( 10 - 10) =     16.13391  eV     1   --> A              

 **************************************************************************

 **************************************************************************

                    xk=(  -0.56250,   0.68750,   0.25000  )

     Band symmetry, C_1 (1)     point group:

     e(  1 -  1) =     -3.06338  eV     1   --> A              
     e(  2 -  2) =     -0.69212  eV     1   --> A              
     e(  3 -  3) =      2.86861  eV     1   --> A              
     e(  4 -  4) =      4.24999  eV     1   --> A              
     e(  5 -  5) =      8.43685  eV     1   --> A              
     e(  6 -  6) =      9.94805  eV     1   --> A              
     e(  7 -  7) =     11.44394  eV     1   --> A              
     e(  8 -  8) =     13.28461  eV     1   --> A              
     e(  9 -  9) =     14.28672  eV     1   --> A              
     e( 10 - 10) =     16.08439  eV     1   --> A              

 **************************************************************************

 **************************************************************************

                    xk=(  -0.58125,   0.69375,   0.22500  )

     Band symmetry, C_1 (1)     point group:

     e(  1 -  1) =     -2.98569  eV     1   --> A              
     e(  2 -  2) =     -0.67765  eV     1   --> A              
     e(  3 -  3) =      2.65721  eV     1   --> A              
     e(  4 -  4) =      4.18233  eV     1   --> A              
     e(  5 -  5) =      8.28118  eV     1   --> A              
     e(  6 -  6) =     10.29252  eV     1   --> A              
     e(  7 -  7) =     11.68729  eV     1   --> A              
     e(  8 -  8) =     12.96899  eV     1   --> A              
     e(  9 -  9) =     14.28716  eV     1   --> A              
     e( 10 - 10) =     15.97242  eV     1   --> A              

 **************************************************************************

 **************************************************************************

                    xk=(  -0.60000,   0.70000,   0.20000  )

     Band symmetry, C_1 (1)     point group:

     e(  1 -  1) =     -2.90014  eV     1   --> A              
     e(  2 -  2) =     -0.66992  eV     1   --> A              
     e(  3 -  3) =      2.45436  eV     1   --> A              
     e(  4 -  4) =      4.11961  eV     1   --> A              
     e(  5 -  5) =      8.12756  eV     1   --> A              
     e(  6 -  6) =     10.65554  eV     1   --> A              
     e(  7 -  7) =     11.92549  eV     1   --> A              
     e(  8 -  8) =     12.66713  eV     1   --> A              
     e(  9 -  9) =     14.28669  eV     1   --> A              
     e( 10 - 10) =     15.81881  eV     1   --> A              

 **************************************************************************

 **************************************************************************

                    xk=(  -0.61875,   0.70625,   0.17500  )

     Band symmetry, C_1 (1)     point group:

     e(  1 -  1) =     -2.80715  eV     1   --> A              
     e(  2 -  2) =     -0.67232  eV     1   --> A              
     e(  3 -  3) =      2.26698  eV     1   --> A              
     e(  4 -  4) =      4.06119  eV     1   --> A              
     e(  5 -  5) =      7.98006  eV     1   --> A              
     e(  6 -  6) =     11.02643  eV     1   --> A              
     e(  7 -  7) =     12.11355  eV     1   --> A              
     e(  8 -  8) =     12.43145  eV     1   --> A              
     e(  9 -  9) =     14.28666  eV     1   --> A              
     e( 10 - 10) =     15.64243  eV     1   --> A              

 **************************************************************************

 **************************************************************************

                    xk=(  -0.63750,   0.71250,   0.15000  )

     Band symmetry, C_1 (1)     point group:

     e(  1 -  1) =     -2.70732  eV     1   --> A              
     e(  2 -  2) =     -0.68849  eV     1   --> A              
     e(  3 -  3) =      2.10168  eV     1   --> A              
     e(  4 -  4) =      4.00640  eV     1   --> A              
     e(  5 -  5) =      7.84131  eV     1   --> A              
     e(  6 -  6) =     11.37370  eV     1   --> A              
     e(  7 -  7) =     12.02905  eV     1   --> A              
     e(  8 -  8) =     12.51342  eV     1   --> A              
     e(  9 -  9) =     14.28856  eV     1   --> A              
     e( 10 - 10) =     15.45553  eV     1   --> A              

 **************************************************************************

 **************************************************************************

                    xk=(  -0.65625,   0.71875,   0.12500  )

     Band symmetry, C_1 (1)     point group:

     e(  1 -  1) =     -2.60158  eV     1   --> A              
     e(  2 -  2) =     -0.72177  eV     1   --> A              
     e(  3 -  3) =      1.96444  eV     1   --> A              
     e(  4 -  4) =      3.95464  eV     1   --> A              
     e(  5 -  5) =      7.71326  eV     1   --> A              
     e(  6 -  6) =     11.49975  eV     1   --> A              
     e(  7 -  7) =     12.03104  eV     1   --> A              
     e(  8 -  8) =     12.74916  eV     1   --> A              
     e(  9 -  9) =     14.29392  eV     1   --> A              
     e( 10 - 10) =     15.26575  eV     1   --> A              

 **************************************************************************

 **************************************************************************

                    xk=(  -0.67500,   0.72500,   0.10000  )

     Band symmetry, C_1 (1)     point group:

     e(  1 -  1) =     -2.49139  eV     1   --> A              
[...]

 **************************************************************************

                    xk=(  -0.35625,   0.35625,   0.00000  )

     Band symmetry, C_2v (mm2)  point group:

     e(  1 -  1) =     -4.78234  eV     1   --> A_1  D_1  S_1  
     e(  2 -  2) =      2.16456  eV     1   --> B_1  D_3  S_3  
     e(  3 -  3) =      3.50606  eV     1   --> A_1  D_1  S_1  
     e(  4 -  4) =      5.52023  eV     1   --> A_2  D_2  S_2  
     e(  5 -  5) =      9.15090  eV     1   --> B_1  D_3  S_3  
     e(  6 -  6) =      9.86192  eV     1   --> B_2  D_4  S_4  
     e(  7 -  7) =     10.12809  eV     1   --> A_1  D_1  S_1  
     e(  8 -  8) =     11.79867  eV     1   --> B_1  D_3  S_3  
     e(  9 -  9) =     12.24690  eV     1   --> A_2  D_2  S_2  
     e( 10 - 10) =     16.03445  eV     1   --> B_1  D_3  S_3  

 **************************************************************************

 **************************************************************************

                    xk=(  -0.33750,   0.33750,   0.00000  )

     Band symmetry, C_2v (mm2)  point group:

     e(  1 -  1) =     -4.89103  eV     1   --> A_1  D_1  S_1  
     e(  2 -  2) =      2.38449  eV     1   --> B_1  D_3  S_3  
     e(  3 -  3) =      3.67891  eV     1   --> A_1  D_1  S_1  
     e(  4 -  4) =      5.59607  eV     1   --> A_2  D_2  S_2  
     e(  5 -  5) =      9.18313  eV     1   --> B_1  D_3  S_3  
     e(  6 -  6) =      9.74540  eV     1   --> B_2  D_4  S_4  
     e(  7 -  7) =     10.00395  eV     1   --> A_1  D_1  S_1  
     e(  8 -  8) =     11.78906  eV     1   --> B_1  D_3  S_3  
     e(  9 -  9) =     12.25936  eV     1   --> A_2  D_2  S_2  
     e( 10 - 10) =     15.65490  eV     1   --> B_1  D_3  S_3  

 **************************************************************************

 **************************************************************************

                    xk=(  -0.31875,   0.31875,   0.00000  )

     Band symmetry, C_2v (mm2)  point group:

     e(  1 -  1) =     -4.99462  eV     1   --> A_1  D_1  S_1  
     e(  2 -  2) =      2.60944  eV     1   --> B_1  D_3  S_3  
     e(  3 -  3) =      3.85501  eV     1   --> A_1  D_1  S_1  
     e(  4 -  4) =      5.66746  eV     1   --> A_2  D_2  S_2  
     e(  5 -  5) =      9.20370  eV     1   --> B_1  D_3  S_3  
     e(  6 -  6) =      9.63506  eV     1   --> B_2  D_4  S_4  
     e(  7 -  7) =      9.88517  eV     1   --> A_1  D_1  S_1  
     e(  8 -  8) =     11.78427  eV     1   --> B_1  D_3  S_3  
     e(  9 -  9) =     12.28640  eV     1   --> A_2  D_2  S_2  
     e( 10 - 10) =     15.29320  eV     1   --> B_1  D_3  S_3  

 **************************************************************************

 **************************************************************************

                    xk=(  -0.30000,   0.30000,   0.00000  )

     Band symmetry, C_2v (mm2)  point group:

     e(  1 -  1) =     -5.09296  eV     1   --> A_1  D_1  S_1  
     e(  2 -  2) =      2.83919  eV     1   --> B_1  D_3  S_3  
     e(  3 -  3) =      4.03366  eV     1   --> A_1  D_1  S_1  
     e(  4 -  4) =      5.73408  eV     1   --> A_2  D_2  S_2  
     e(  5 -  5) =      9.21347  eV     1   --> B_1  D_3  S_3  
     e(  6 -  6) =      9.53093  eV     1   --> B_2  D_4  S_4  
     e(  7 -  7) =      9.77169  eV     1   --> A_1  D_1  S_1  
     e(  8 -  8) =     11.77811  eV     1   --> B_1  D_3  S_3  
     e(  9 -  9) =     12.32803  eV     1   --> A_2  D_2  S_2  
     e( 10 - 10) =     14.95446  eV     1   --> B_1  D_3  S_3  

 **************************************************************************

 **************************************************************************

                    xk=(  -0.28125,   0.28125,   0.00000  )

     Band symmetry, C_2v (mm2)  point group:

     e(  1 -  1) =     -5.18590  eV     1   --> A_1  D_1  S_1  
     e(  2 -  2) =      3.07344  eV     1   --> B_1  D_3  S_3  
     e(  3 -  3) =      4.21410  eV     1   --> A_1  D_1  S_1  
     e(  4 -  4) =      5.79571  eV     1   --> A_2  D_2  S_2  
     e(  5 -  5) =      9.21368  eV     1   --> B_1  D_3  S_3  
     e(  6 -  6) =      9.43301  eV     1   --> B_2  D_4  S_4  
     e(  7 -  7) =      9.66345  eV     1   --> A_1  D_1  S_1  
     e(  8 -  8) =     11.76229  eV     1   --> B_1  D_3  S_3  
     e(  9 -  9) =     12.38411  eV     1   --> A_2  D_2  S_2  
     e( 10 - 10) =     14.64531  eV     1   --> B_1  D_3  S_3  

 **************************************************************************

 **************************************************************************

                    xk=(  -0.26250,   0.26250,   0.00000  )

     Band symmetry, C_2v (mm2)  point group:

     e(  1 -  1) =     -5.27331  eV     1   --> A_1  D_1  S_1  
     e(  2 -  2) =      3.31185  eV     1   --> B_1  D_3  S_3  
     e(  3 -  3) =      4.39549  eV     1   --> A_1  D_1  S_1  
     e(  4 -  4) =      5.85222  eV     1   --> A_2  D_2  S_2  
     e(  5 -  5) =      9.20579  eV     1   --> B_1  D_3  S_3  
     e(  6 -  6) =      9.34134  eV     1   --> B_2  D_4  S_4  
     e(  7 -  7) =      9.56036  eV     1   --> A_1  D_1  S_1  
     e(  8 -  8) =     11.72667  eV     1   --> B_1  D_3  S_3  
     e(  9 -  9) =     12.45431  eV     1   --> A_2  D_2  S_2  
     e( 10 - 10) =     14.37394  eV     1   --> B_1  D_3  S_3  

 **************************************************************************

 **************************************************************************

                    xk=(  -0.24375,   0.24375,   0.00000  )

     Band symmetry, C_2v (mm2)  point group:

     e(  1 -  1) =     -5.35509  eV     1   --> A_1  D_1  S_1  
     e(  2 -  2) =      3.55398  eV     1   --> B_1  D_3  S_3  
     e(  3 -  3) =      4.57688  eV     1   --> A_1  D_1  S_1  
     e(  4 -  4) =      5.90356  eV     1   --> A_2  D_2  S_2  
     e(  5 -  5) =      9.19127  eV     1   --> B_1  D_3  S_3  
     e(  6 -  6) =      9.25592  eV     1   --> B_2  D_4  S_4  
     e(  7 -  7) =      9.46233  eV     1   --> A_1  D_1  S_1  
     e(  8 -  8) =     11.66036  eV     1   --> B_1  D_3  S_3  
     e(  9 -  9) =     12.53813  eV     1   --> A_2  D_2  S_2  
     e( 10 - 10) =     14.14912  eV     1   --> B_1  D_3  S_3  

 **************************************************************************

 **************************************************************************

                    xk=(  -0.22500,   0.22500,   0.00000  )

     Band symmetry, C_2v (mm2)  point group:

     e(  1 -  1) =     -5.43115  eV     1   --> A_1  D_1  S_1  
     e(  2 -  2) =      3.79930  eV     1   --> B_1  D_3  S_3  
     e(  3 -  3) =      4.75719  eV     1   --> A_1  D_1  S_1  
     e(  4 -  4) =      5.94977  eV     1   --> A_2  D_2  S_2  
     e(  5 -  5) =      9.17153  eV     1   --> B_1  D_3  S_3  
     e(  6 -  6) =      9.17678  eV     1   --> B_2  D_4  S_4  
     e(  7 -  7) =      9.36928  eV     1   --> A_1  D_1  S_1  
     e(  8 -  8) =     11.55451  eV     1   --> B_1  D_3  S_3  
     e(  9 -  9) =     12.63482  eV     1   --> A_2  D_2  S_2  
     e( 10 - 10) =     13.97768  eV     1   --> B_1  D_3  S_3  

 **************************************************************************

 **************************************************************************

                    xk=(  -0.20625,   0.20625,   0.00000  )

     Band symmetry, C_2v (mm2)  point group:

     e(  1 -  1) =     -5.50139  eV     1   --> A_1  D_1  S_1  
     e(  2 -  2) =      4.04711  eV     1   --> B_1  D_3  S_3  
     e(  3 -  3) =      4.93520  eV     1   --> A_1  D_1  S_1  
     e(  4 -  4) =      5.99096  eV     1   --> A_2  D_2  S_2  
     e(  5 -  5) =      9.10392  eV     1   --> B_2  D_4  S_4  
     e(  6 -  6) =      9.14775  eV     1   --> B_1  D_3  S_3  
     e(  7 -  7) =      9.28116  eV     1   --> A_1  D_1  S_1  
     e(  8 -  8) =     11.40569  eV     1   --> B_1  D_3  S_3  
     e(  9 -  9) =     12.74341  eV     1   --> A_2  D_2  S_2  
     e( 10 - 10) =     13.86123  eV     1   --> B_1  D_3  S_3  

 **************************************************************************

 **************************************************************************

                    xk=(  -0.18750,   0.18750,   0.00000  )

     Band symmetry, C_2v (mm2)  point group:

     e(  1 -  1) =     -5.56574  eV     1   --> A_1  D_1  S_1  
     e(  2 -  2) =      4.29652  eV     1   --> B_1  D_3  S_3  
     e(  3 -  3) =      5.10950  eV     1   --> A_1  D_1  S_1  
     e(  4 -  4) =      6.02731  eV     1   --> A_2  D_2  S_2  
     e(  5 -  5) =      9.03736  eV     1   --> B_2  D_4  S_4  
     e(  6 -  6) =      9.12088  eV     1   --> B_1  D_3  S_3  
     e(  7 -  7) =      9.19793  eV     1   --> A_1  D_1  S_1  
     e(  8 -  8) =     11.21766  eV     1   --> B_1  D_3  S_3  
     e(  9 -  9) =     12.86260  eV     1   --> A_2  D_2  S_2  
     e( 10 - 10) =     13.79460  eV     1   --> B_1  D_3  S_3  

 **************************************************************************

 **************************************************************************

                    xk=(  -0.16875,   0.16875,   0.00000  )

     Band symmetry, C_2v (mm2)  point group:

     e(  1 -  1) =     -5.62414  eV     1   --> A_1  D_1  S_1  
     e(  2 -  2) =      4.54633  eV     1   --> B_1  D_3  S_3  
     e(  3 -  3) =      5.27848  eV     1   --> A_1  D_1  S_1  
     e(  4 -  4) =      6.05904  eV     1   --> A_2  D_2  S_2  
     e(  5 -  5) =      8.97711  eV     1   --> B_2  D_4  S_4  
     e(  6 -  6) =      9.09152  eV     1   --> B_1  D_3  S_3  
     e(  7 -  7) =      9.11964  eV     1   --> A_1  D_1  S_1  
     e(  8 -  8) =     10.99967  eV     1   --> B_1  D_3  S_3  
     e(  9 -  9) =     12.99075  eV     1   --> A_2  D_2  S_2  
     e( 10 - 10) =     13.76769  eV     1   --> B_1  D_3  S_3  

 **************************************************************************

 **************************************************************************

                    xk=(  -0.15000,   0.15000,   0.00000  )

     Band symmetry, C_2v (mm2)  point group:

     e(  1 -  1) =     -5.67653  eV     1   --> A_1  D_1  S_1  
     e(  2 -  2) =      4.79494  eV     1   --> B_1  D_3  S_3  
     e(  3 -  3) =      5.44030  eV     1   --> A_1  D_1  S_1  
     e(  4 -  4) =      6.08641  eV     1   --> A_2  D_2  S_2  
     e(  5 -  5) =      8.92318  eV     1   --> B_2  D_4  S_4  
     e(  6 -  6) =      9.04642  eV     1   --> A_1  D_1  S_1  
     e(  7 -  7) =      9.05984  eV     1   --> B_1  D_3  S_3  
     e(  8 -  8) =     10.76328  eV     1   --> B_1  D_3  S_3  
     e(  9 -  9) =     13.12576  eV     1   --> A_2  D_2  S_2  
     e( 10 - 10) =     13.76895  eV     1   --> B_1  D_3  S_3  

 **************************************************************************

 **************************************************************************

                    xk=(  -0.13125,   0.13125,   0.00000  )

     Band symmetry, C_2v (mm2)  point group:

     e(  1 -  1) =     -5.72286  eV     1   --> A_1  D_1  S_1  
     e(  2 -  2) =      5.04014  eV     1   --> B_1  D_3  S_3  
     e(  3 -  3) =      5.59283  eV     1   --> A_1  D_1  S_1  
     e(  4 -  4) =      6.10970  eV     1   --> A_2  D_2  S_2  
     e(  5 -  5) =      8.87557  eV     1   --> B_2  D_4  S_4  
     e(  6 -  6) =      8.97856  eV     1   --> A_1  D_1  S_1  
     e(  7 -  7) =      9.02552  eV     1   --> B_1  D_3  S_3  
     e(  8 -  8) =     10.52008  eV     1   --> B_1  D_3  S_3  
     e(  9 -  9) =     13.26492  eV     1   --> A_2  D_2  S_2  
     e( 10 - 10) =     13.78800  eV     1   --> B_1  D_3  S_3  

 **************************************************************************

 **************************************************************************

                    xk=(  -0.11250,   0.11250,   0.00000  )

     Band symmetry, C_2v (mm2)  point group:

     e(  1 -  1) =     -5.76309  eV     1   --> A_1  D_1  S_1  
     e(  2 -  2) =      5.27884  eV     1   --> B_1  D_3  S_3  
     e(  3 -  3) =      5.73370  eV     1   --> A_1  D_1  S_1  
     e(  4 -  4) =      6.12920  eV     1   --> A_2  D_2  S_2  
     e(  5 -  5) =      8.83430  eV     1   --> B_2  D_4  S_4  
     e(  6 -  6) =      8.91653  eV     1   --> A_1  D_1  S_1  
     e(  7 -  7) =      8.98760  eV     1   --> B_1  D_3  S_3  
     e(  8 -  8) =     10.28123  eV     1   --> B_1  D_3  S_3  
     e(  9 -  9) =     13.40482  eV     1   --> A_2  D_2  S_2  
     e( 10 - 10) =     13.81656  eV     1   --> B_1  D_3  S_3  

 **************************************************************************

 **************************************************************************

                    xk=(  -0.09375,   0.09375,   0.00000  )

     Band symmetry, C_2v (mm2)  point group:

     e(  1 -  1) =     -5.79719  eV     1   --> A_1  D_1  S_1  
     e(  2 -  2) =      5.50664  eV     1   --> B_1  D_3  S_3  
     e(  3 -  3) =      5.86023  eV     1   --> A_1  D_1  S_1  
     e(  4 -  4) =      6.14516  eV     1   --> A_2  D_2  S_2  
     e(  5 -  5) =      8.79936  eV     1   --> B_2  D_4  S_4  
     e(  6 -  6) =      8.86103  eV     1   --> A_1  D_1  S_1  
     e(  7 -  7) =      8.94450  eV     1   --> B_1  D_3  S_3  
     e(  8 -  8) =     10.05788  eV     1   --> B_1  D_3  S_3  
     e(  9 -  9) =     13.54106  eV     1   --> A_2  D_2  S_2  
     e( 10 - 10) =     13.84843  eV     1   --> B_1  D_3  S_3  

 **************************************************************************

 **************************************************************************

                    xk=(  -0.07500,   0.07500,   0.00000  )

     Band symmetry, C_2v (mm2)  point group:

     e(  1 -  1) =     -5.82513  eV     1   --> A_1  D_1  S_1  
     e(  2 -  2) =      5.71731  eV     1   --> B_1  D_3  S_3  
     e(  3 -  3) =      5.96957  eV     1   --> A_1  D_1  S_1  
     e(  4 -  4) =      6.15786  eV     1   --> A_2  D_2  S_2  
     e(  5 -  5) =      8.77077  eV     1   --> B_2  D_4  S_4  
     e(  6 -  6) =      8.81303  eV     1   --> A_1  D_1  S_1  
     e(  7 -  7) =      8.89460  eV     1   --> B_1  D_3  S_3  
     e(  8 -  8) =      9.86162  eV     1   --> B_1  D_3  S_3  
     e(  9 -  9) =     13.66811  eV     1   --> A_2  D_2  S_2  
     e( 10 - 10) =     13.87918  eV     1   --> B_1  D_3  S_3  

 **************************************************************************

 **************************************************************************

                    xk=(  -0.05625,   0.05625,   0.00000  )

     Band symmetry, C_2v (mm2)  point group:

     e(  1 -  1) =     -5.84689  eV     1   --> A_1  D_1  S_1  
     e(  2 -  2) =      5.90208  eV     1   --> B_1  D_3  S_3  
     e(  3 -  3) =      6.05875  eV     1   --> A_1  D_1  S_1  
     e(  4 -  4) =      6.16749  eV     1   --> A_2  D_2  S_2  
     e(  5 -  5) =      8.74854  eV     1   --> B_2  D_4  S_4  
     e(  6 -  6) =      8.77369  eV     1   --> A_1  D_1  S_1  
     e(  7 -  7) =      8.83824  eV     1   --> B_1  D_3  S_3  
     e(  8 -  8) =      9.70340  eV     1   --> B_1  D_3  S_3  
     e(  9 -  9) =     13.77923  eV     1   --> A_2  D_2  S_2  
     e( 10 - 10) =     13.90570  eV     1   --> B_1  D_3  S_3  

 **************************************************************************

 **************************************************************************

                    xk=(  -0.03750,   0.03750,   0.00000  )

     Band symmetry, C_2v (mm2)  point group:

     e(  1 -  1) =     -5.86244  eV     1   --> A_1  D_1  S_1  
     e(  2 -  2) =      6.04939  eV     1   --> B_1  D_3  S_3  
     e(  3 -  3) =      6.12495  eV     1   --> A_1  D_1  S_1  
     e(  4 -  4) =      6.17424  eV     1   --> A_2  D_2  S_2  
     e(  5 -  5) =      8.73265  eV     1   --> B_2  D_4  S_4  
     e(  6 -  6) =      8.74432  eV     1   --> A_1  D_1  S_1  
     e(  7 -  7) =      8.78132  eV     1   --> B_1  D_3  S_3  
     e(  8 -  8) =      9.59063  eV     1   --> B_1  D_3  S_3  
     e(  9 -  9) =     13.86679  eV     1   --> A_2  D_2  S_2  
     e( 10 - 10) =     13.92591  eV     1   --> B_1  D_3  S_3  

 **************************************************************************

 **************************************************************************

                    xk=(  -0.01875,   0.01875,   0.00000  )

     Band symmetry, C_2v (mm2)  point group:

     e(  1 -  1) =     -5.87177  eV     1   --> A_1  D_1  S_1  
     e(  2 -  2) =      6.14580  eV     1   --> B_1  D_3  S_3  
     e(  3 -  3) =      6.16576  eV     1   --> A_1  D_1  S_1  
     e(  4 -  4) =      6.17823  eV     1   --> A_2  D_2  S_2  
     e(  5 -  5) =      8.72311  eV     1   --> B_2  D_4  S_4  
     e(  6 -  6) =      8.72611  eV     1   --> A_1  D_1  S_1  
     e(  7 -  7) =      8.73694  eV     1   --> B_1  D_3  S_3  
     e(  8 -  8) =      9.52475  eV     1   --> B_1  D_3  S_3  
     e(  9 -  9) =     13.92324  eV     1   --> A_2  D_2  S_2  
     e( 10 - 10) =     13.93132  eV     1   -->   ?

 **************************************************************************

 **************************************************************************

                    xk=(   0.00000,   0.00000,   0.00000  )

     point group O_h (m-3m) 
     there are 10 classes
     the character table:

       E     8C3   3C2   6C4   6C2'  i     8S6   3s_h  6S4   6s_d 
A_1g   1.00  1.00  1.00  1.00  1.00  1.00  1.00  1.00  1.00  1.00
A_2g   1.00  1.00  1.00 -1.00 -1.00  1.00  1.00  1.00 -1.00 -1.00
E_g    2.00 -1.00  2.00  0.00  0.00  2.00 -1.00  2.00  0.00  0.00
T_1g   3.00  0.00 -1.00  1.00 -1.00  3.00  0.00 -1.00  1.00 -1.00
T_2g   3.00  0.00 -1.00 -1.00  1.00  3.00  0.00 -1.00 -1.00  1.00
A_1u   1.00  1.00  1.00  1.00  1.00 -1.00 -1.00 -1.00 -1.00 -1.00
A_2u   1.00  1.00  1.00 -1.00 -1.00 -1.00 -1.00 -1.00  1.00  1.00
E_u    2.00 -1.00  2.00  0.00  0.00 -2.00  1.00 -2.00  0.00  0.00
T_1u   3.00  0.00 -1.00  1.00 -1.00 -3.00  0.00  1.00 -1.00  1.00
T_2u   3.00  0.00 -1.00 -1.00  1.00 -3.00  0.00  1.00  1.00 -1.00

     the symmetry operations in each class and the name of the first element:

     E        1
                                                                 
     8C3     17   19   20   18   24   21   22   23
                                                                 
     3C2      2    4    3
                                                                 
     6C4      7    8   15   16   12   11
                                                                 
     6C2'     5    6   14   13   10    9
                                                                 
     i       25
                                                                 
     8S6     41   43   44   42   48   45   46   47
                                                                 
     3s_h    26   28   27
                                                                 
     6S4     31   32   39   40   36   35
                                                                 
     6s_d    29   30   38   37   34   33
                                                                 

     Band symmetry, O_h (m-3m)  point group:

     e(  1 -  1) =     -5.87489  eV     1   --> A_1g G_1   G_1+
     e(  2 -  4) =      6.17956  eV     3   --> T_2g G_25' G_5+
     e(  5 -  7) =      8.71994  eV     3   --> T_1u G_15  G_4-
     e(  8 -  8) =      9.50332  eV     1   --> A_2u G_2'  G_2-
     e(  9 -  9) =     13.91702  eV     1   --> A_1g G_1   G_1+
     e( 10 - 10) =     13.94279  eV     1   -->   ?

 **************************************************************************

     BANDS        :     12.98s CPU     12.56s WALL


   This run was terminated on:  13:39:54  16May2025            

=------------------------------------------------------------------------------=
   JOB DONE.
=------------------------------------------------------------------------------=
