
     Program PWSCF v.7.4.1 starts on 16May2025 at 12:30:57 

     This program is part of the open-source Quantum ESPRESSO suite
     for quantum simulation of materials; please cite
         "P. Giannozzi et al., J. Phys.:Condens. Matter 21 395502 (2009);
         "P. Giannozzi et al., J. Phys.:Condens. Matter 29 465901 (2017);
         "P. Giannozzi et al., J. Chem. Phys. 152 154105 (2020);
          URL http://www.quantum-espresso.org", 
     in publications or presentations arising from this work. More details at
     http://www.quantum-espresso.org/quote

     Serial version
     2774 MiB available memory on the printing compute node when the environment starts

     Waiting for input...
     Reading input from standard input
     Message from routine read_cards :
     DEPRECATED: no units specified in ATOMIC_POSITIONS card
     Message from routine read_cards :
     ATOMIC_POSITIONS: units set to alat

     Current dimensions of program PWSCF are:
     Max number of different atomic species (ntypx) = 10
     Max number of k-points (npk) =  40000
     Max angular momentum in pseudopotentials (lmaxx) =  4
     Message from routine iosys:
     BEWARE:  force calculation with tetrahedra (not recommanded)
     Message from routine iosys:
     BEWARE: stress calculation with tetrahedra (not recommanded)
     [opt_tetra]  Optimized tetrahedron method is used.


     G-vector sticks info
     --------------------
     sticks:   dense  smooth     PW     G-vecs:    dense   smooth      PW
     Sum         595     595    187                 9841     9841    1687

     Using Slab Decomposition



     bravais-lattice index     =            2
     lattice parameter (alat)  =      10.5000  a.u.
     unit-cell volume          =     289.4062 (a.u.)^3
     number of atoms/cell      =            2
     number of atomic types    =            1
     number of electrons       =         8.00
     number of Kohn-Sham states=            8
     kinetic-energy cutoff     =      40.0000  Ry
     charge density cutoff     =     160.0000  Ry
     scf convergence threshold =      1.0E-06
     mixing beta               =       0.7000
     number of iterations used =            8  plain     mixing
     energy convergence thresh.=      1.0E-04
     force convergence thresh. =      1.0E-03
     Exchange-correlation= SLA  PW   NOGX NOGC
                           (   1   4   0   0   0   0   0)
     nstep                     =           50


     celldm(1)=  10.500000  celldm(2)=   0.000000  celldm(3)=   0.000000
     celldm(4)=   0.000000  celldm(5)=   0.000000  celldm(6)=   0.000000

     crystal axes: (cart. coord. in units of alat)
               a(1) = (  -0.500000   0.000000   0.500000 )  
               a(2) = (   0.000000   0.500000   0.500000 )  
               a(3) = (  -0.500000   0.500000   0.000000 )  

     reciprocal axes: (cart. coord. in units 2 pi/alat)
               b(1) = ( -1.000000 -1.000000  1.000000 )  
               b(2) = (  1.000000  1.000000  1.000000 )  
               b(3) = ( -1.000000  1.000000 -1.000000 )  


     PseudoPot. # 1 for Si read from file:
     ./pseudo/Si.LDA.upf
     MD5 check sum: 9e2d726316af3d4752eea8ab0afbb951
     Pseudo is Norm-conserving + core correction, Zval =  4.0
     Generated using ONCVPSP code by D. R. Hamann
     Using radial grid of 1510 points,  6 beta functions with: 
                l(1) =   0
                l(2) =   0
                l(3) =   1
                l(4) =   1
                l(5) =   2
                l(6) =   2

     atomic species   valence    mass     pseudopotential
     Si                4.00    28.08550     Si( 1.00)

      4 Sym. Ops. (no inversion) found



   Cartesian axes

     site n.     atom                  positions (alat units)
         1        Si     tau(   1) = (   0.2000000   0.0000000   0.0000000  )
         2        Si     tau(   2) = (   0.2500000   0.2500000   0.2500000  )

     number of k points=    18 (tetrahedron method)
                       cart. coord. in units 2pi/alat
        k(    1) = (   0.0000000   0.0000000   0.0000000), wk =   0.0312500
        k(    2) = (  -0.2500000   0.2500000  -0.2500000), wk =   0.1250000
        k(    3) = (   0.5000000  -0.5000000   0.5000000), wk =   0.0625000
        k(    4) = (   0.0000000   0.5000000   0.0000000), wk =   0.1250000
        k(    5) = (   0.7500000  -0.2500000   0.7500000), wk =   0.2500000
        k(    6) = (   0.5000000   0.0000000   0.5000000), wk =   0.2500000
        k(    7) = (   0.0000000  -1.0000000   0.0000000), wk =   0.0625000
        k(    8) = (  -0.5000000  -1.0000000   0.0000000), wk =   0.0625000
        k(    9) = (  -0.2500000   0.2500000   0.2500000), wk =   0.1250000
        k(   10) = (   0.5000000  -0.5000000  -0.5000000), wk =   0.0625000
        k(   11) = (   0.5000000   0.0000000   0.0000000), wk =   0.0625000
        k(   12) = (  -0.2500000   0.7500000  -0.7500000), wk =   0.1250000
        k(   13) = (   0.2500000  -0.7500000  -0.7500000), wk =   0.1250000
        k(   14) = (   0.7500000   0.2500000   0.7500000), wk =   0.2500000
        k(   15) = (   0.0000000   0.5000000  -0.5000000), wk =   0.0625000
        k(   16) = (   0.0000000  -0.5000000  -0.5000000), wk =   0.0625000
        k(   17) = (  -1.0000000   0.0000000   0.0000000), wk =   0.0312500
        k(   18) = (  -1.0000000  -0.5000000   0.0000000), wk =   0.1250000

     Dense  grid:     9841 G-vectors     FFT dimensions: (  30,  30,  30)

     Estimated max dynamical RAM per process >      11.13 MB

     Initial potential from superposition of free atoms

     starting charge       7.9989, renormalised to       8.0000
     Starting wfcs are    8 randomized atomic wfcs

     total cpu time spent up to now is        0.2 secs

     Self-consistent Calculation

     iteration #  1     ecut=    40.00 Ry     beta= 0.70
     Davidson diagonalization with overlap
     ethr =  1.00E-02,  avg # of iterations =  5.6

     Threshold (ethr) on eigenvalues was too large:
     Diagonalizing with lowered threshold

     Davidson diagonalization with overlap
     ethr =  9.94E-04,  avg # of iterations =  1.6

     total cpu time spent up to now is        0.7 secs

     total energy              =     -16.74093951 Ry
     estimated scf accuracy    <       0.08513855 Ry

     iteration #  2     ecut=    40.00 Ry     beta= 0.70
     Davidson diagonalization with overlap
     ethr =  1.06E-03,  avg # of iterations =  1.7

     total cpu time spent up to now is        0.9 secs

     total energy              =     -16.75051215 Ry
     estimated scf accuracy    <       0.00142417 Ry

     iteration #  3     ecut=    40.00 Ry     beta= 0.70
     Davidson diagonalization with overlap
     ethr =  1.78E-05,  avg # of iterations =  5.2

     total cpu time spent up to now is        1.3 secs

     total energy              =     -16.75080274 Ry
     estimated scf accuracy    <       0.00014695 Ry

     iteration #  4     ecut=    40.00 Ry     beta= 0.70
     Davidson diagonalization with overlap
     ethr =  1.84E-06,  avg # of iterations =  3.2

     total cpu time spent up to now is        1.6 secs

     total energy              =     -16.75082814 Ry
     estimated scf accuracy    <       0.00015354 Ry

     iteration #  5     ecut=    40.00 Ry     beta= 0.70
     Davidson diagonalization with overlap
     ethr =  1.84E-06,  avg # of iterations =  1.0

     total cpu time spent up to now is        1.8 secs

     total energy              =     -16.75084110 Ry
     estimated scf accuracy    <       0.00001505 Ry

     iteration #  6     ecut=    40.00 Ry     beta= 0.70
     Davidson diagonalization with overlap
     ethr =  1.88E-07,  avg # of iterations =  1.1

     total cpu time spent up to now is        2.0 secs

     total energy              =     -16.75084384 Ry
     estimated scf accuracy    <       0.00001995 Ry

     iteration #  7     ecut=    40.00 Ry     beta= 0.70
     Davidson diagonalization with overlap
     ethr =  1.88E-07,  avg # of iterations =  1.0

     total cpu time spent up to now is        2.2 secs

     total energy              =     -16.75084203 Ry
     estimated scf accuracy    <       0.00001504 Ry

     iteration #  8     ecut=    40.00 Ry     beta= 0.70
     Davidson diagonalization with overlap
     ethr =  1.88E-07,  avg # of iterations =  1.0

     total cpu time spent up to now is        2.5 secs

     total energy              =     -16.75084400 Ry
     estimated scf accuracy    <       0.00001801 Ry

     iteration #  9     ecut=    40.00 Ry     beta= 0.70
     Davidson diagonalization with overlap
     ethr =  1.88E-07,  avg # of iterations =  1.0

     total cpu time spent up to now is        2.7 secs

     total energy              =     -16.75084291 Ry
     estimated scf accuracy    <       0.00001561 Ry

     iteration # 10     ecut=    40.00 Ry     beta= 0.70
     Davidson diagonalization with overlap
     ethr =  1.88E-07,  avg # of iterations =  1.0

     total cpu time spent up to now is        2.9 secs

     total energy              =     -16.75084366 Ry
     estimated scf accuracy    <       0.00001420 Ry

     iteration # 11     ecut=    40.00 Ry     beta= 0.70
     Davidson diagonalization with overlap
     ethr =  1.77E-07,  avg # of iterations =  1.0

     total cpu time spent up to now is        3.1 secs

     total energy              =     -16.75084325 Ry
     estimated scf accuracy    <       0.00001418 Ry

     iteration # 12     ecut=    40.00 Ry     beta= 0.70
     Davidson diagonalization with overlap
     ethr =  1.77E-07,  avg # of iterations =  1.0

     total cpu time spent up to now is        3.3 secs

     total energy              =     -16.75084336 Ry
     estimated scf accuracy    <       0.00001307 Ry

     iteration # 13     ecut=    40.00 Ry     beta= 0.70
     Davidson diagonalization with overlap
     ethr =  1.63E-07,  avg # of iterations =  1.0

     total cpu time spent up to now is        3.5 secs

     total energy              =     -16.75084340 Ry
     estimated scf accuracy    <       0.00001313 Ry

     iteration # 14     ecut=    40.00 Ry     beta= 0.70
     Davidson diagonalization with overlap
     ethr =  1.63E-07,  avg # of iterations =  1.0

     total cpu time spent up to now is        3.7 secs

     total energy              =     -16.75084320 Ry
     estimated scf accuracy    <       0.00001328 Ry

     iteration # 15     ecut=    40.00 Ry     beta= 0.70
     Davidson diagonalization with overlap
     ethr =  1.63E-07,  avg # of iterations =  1.0

     total cpu time spent up to now is        3.9 secs

     total energy              =     -16.75084338 Ry
     estimated scf accuracy    <       0.00001344 Ry

     iteration # 16     ecut=    40.00 Ry     beta= 0.70
     Davidson diagonalization with overlap
     ethr =  1.63E-07,  avg # of iterations =  1.0

     total cpu time spent up to now is        4.2 secs

     total energy              =     -16.75084336 Ry
     estimated scf accuracy    <       0.00001341 Ry

     iteration # 17     ecut=    40.00 Ry     beta= 0.70
     Davidson diagonalization with overlap
     ethr =  1.63E-07,  avg # of iterations =  1.0

     total cpu time spent up to now is        4.4 secs

     total energy              =     -16.75084337 Ry
     estimated scf accuracy    <       0.00001333 Ry

     iteration # 18     ecut=    40.00 Ry     beta= 0.70
     Davidson diagonalization with overlap
     ethr =  1.63E-07,  avg # of iterations =  1.0

     total cpu time spent up to now is        4.6 secs

     total energy              =     -16.75084333 Ry
     estimated scf accuracy    <       0.00001335 Ry

     iteration # 19     ecut=    40.00 Ry     beta= 0.70
     Davidson diagonalization with overlap
     ethr =  1.63E-07,  avg # of iterations =  1.0

     total cpu time spent up to now is        4.8 secs

     total energy              =     -16.75084328 Ry
     estimated scf accuracy    <       0.00001321 Ry

     iteration # 20     ecut=    40.00 Ry     beta= 0.70
     Davidson diagonalization with overlap
     ethr =  1.63E-07,  avg # of iterations =  1.0

     total cpu time spent up to now is        5.0 secs

     End of self-consistent calculation

          k = 0.0000 0.0000 0.0000 (  1243 PWs)   bands (ev):

    -6.7654   1.7056   5.4801   6.2356   7.0662   7.8773   9.7268  10.0019

          k =-0.2500 0.2500-0.2500 (  1245 PWs)   bands (ev):

    -6.2020   1.4958   2.3204   5.6493   6.2266   8.5474  10.0441  10.9710

          k = 0.5000-0.5000 0.5000 (  1224 PWs)   bands (ev):

    -5.4081   0.1154   1.3123   5.4585   5.8711   7.8875   9.5805  10.2333

          k = 0.0000 0.5000 0.0000 (  1243 PWs)   bands (ev):

    -5.8213  -0.2219   3.9836   5.0835   5.9346   6.9259   9.3867  11.7597

          k = 0.7500-0.2500 0.7500 (  1236 PWs)   bands (ev):

    -4.8894  -0.7503   1.1861   4.4458   5.7382   8.1722   9.3670  11.5699

          k = 0.5000 0.0000 0.5000 (  1243 PWs)   bands (ev):

    -5.1403  -0.9438   1.7663   5.1809   6.1187   8.3402   9.8642  11.1698

          k = 0.0000-1.0000 0.0000 (  1234 PWs)   bands (ev):

    -3.2923  -3.2921   3.7141   3.7146   4.8101   4.8101  12.8788  12.8789

          k =-0.5000-1.0000 0.0000 (  1232 PWs)   bands (ev):

    -3.2217  -3.2215   2.3766   2.3770   7.5337   7.5338  10.8057  10.8059

          k =-0.2500 0.2500 0.2500 (  1245 PWs)   bands (ev):

    -5.9823  -0.4660   5.1160   5.4228   6.1499   8.1124   9.2516  10.8232

          k = 0.5000-0.5000-0.5000 (  1224 PWs)   bands (ev):

    -3.8606  -3.5851   4.4348   5.4939   5.8463   6.3757  11.2634  11.6275

          k = 0.5000 0.0000 0.0000 (  1243 PWs)   bands (ev):

    -5.9453   1.0754   2.7807   3.9592   4.9453   9.4866  11.4779  11.9477

          k =-0.2500 0.7500-0.7500 (  1236 PWs)   bands (ev):

    -5.0974   0.7086   0.9070   2.8711   4.6636  10.6803  11.2435  11.2654

          k = 0.2500-0.7500-0.7500 (  1236 PWs)   bands (ev):

    -4.5812  -1.6761   1.6734   3.8237   6.9194   8.6653   9.6629  10.2087

          k = 0.7500 0.2500 0.7500 (  1236 PWs)   bands (ev):

    -3.9807  -2.9162   2.9513   4.3177   5.3149   7.7506  10.8852  12.5634

          k = 0.0000 0.5000-0.5000 (  1243 PWs)   bands (ev):

    -5.4856   1.2907   1.6974   2.3229   5.6549  10.6297  10.8173  10.8376

          k = 0.0000-0.5000-0.5000 (  1243 PWs)   bands (ev):

    -4.5199  -2.5285   2.5848   5.1998   7.5569   8.2958   9.6663   9.8898

          k =-1.0000 0.0000 0.0000 (  1234 PWs)   bands (ev):

    -4.6786   0.2849   0.5668   3.0528   3.9548   7.6207  13.7524  14.3925

          k =-1.0000-0.5000 0.0000 (  1232 PWs)   bands (ev):

    -4.2531  -1.5458   1.4281   2.3917   6.8853   9.1704   9.4614  11.0117

     the Fermi energy is     5.3707 ev

!    total energy              =     -16.75084329 Ry
     estimated scf accuracy    <          2.9E-10 Ry

     The total energy is the sum of the following terms:
     one-electron contribution =       3.92687408 Ry
     hartree contribution      =       1.31041781 Ry
     xc contribution           =      -6.17409950 Ry
     ewald contribution        =     -15.81403568 Ry

     convergence has been achieved in  20 iterations

     Forces acting on atoms (cartesian axes, Ry/au):

     atom    1 type  1   force =    -0.10833565    0.00000000    0.00000000
     atom    2 type  1   force =     0.10833565    0.00000000    0.00000000

     Total force =     0.153210     Total SCF correction =     0.000005


     Computing stress (Cartesian axis) and pressure

          total   stress  (Ry/bohr**3)                   (kbar)     P=      157.99
  -0.00006312   0.00000000   0.00000000           -9.29        0.00        0.00
   0.00000000   0.00164260   0.00193486            0.00      241.63      284.63
   0.00000000   0.00193486   0.00164260            0.00      284.63      241.63


     BFGS Geometry Optimization
     Energy error            =      2.3E-02 Ry
     Gradient error          =      1.1E-01 Ry/Bohr

     number of scf cycles    =   1
     number of bfgs steps    =   0

     energy             new  =     -16.7508432937 Ry

     new trust radius        =       0.1083356463 bohr
     new conv_thr            =       0.0000010000 Ry


ATOMIC_POSITIONS (alat)
Si               0.1896823194        0.0000000000        0.0000000000
Si               0.2603176806        0.2500000000        0.2500000000



     Writing config-only to output data dir ./tmp/force_relax.save/ :
     XML data file
     NEW-OLD atomic charge density approx. for the potential

     total cpu time spent up to now is        5.3 secs

     Self-consistent Calculation

     iteration #  1     ecut=    40.00 Ry     beta= 0.70
     Davidson diagonalization with overlap
     ethr =  1.00E-06,  avg # of iterations =  8.3

     total cpu time spent up to now is        5.9 secs

     total energy              =     -16.77772644 Ry
     estimated scf accuracy    <       0.00038817 Ry

     iteration #  2     ecut=    40.00 Ry     beta= 0.70
     Davidson diagonalization with overlap
     ethr =  4.85E-06,  avg # of iterations =  1.3

     total cpu time spent up to now is        6.1 secs

     total energy              =     -16.77778145 Ry
     estimated scf accuracy    <       0.00006824 Ry

     iteration #  3     ecut=    40.00 Ry     beta= 0.70
     Davidson diagonalization with overlap
     ethr =  8.53E-07,  avg # of iterations =  1.0

     total cpu time spent up to now is        6.3 secs

     total energy              =     -16.77778861 Ry
     estimated scf accuracy    <       0.00002874 Ry

     iteration #  4     ecut=    40.00 Ry     beta= 0.70
     Davidson diagonalization with overlap
     ethr =  3.59E-07,  avg # of iterations =  1.0

     total cpu time spent up to now is        6.5 secs

     total energy              =     -16.77779105 Ry
     estimated scf accuracy    <       0.00001523 Ry

     iteration #  5     ecut=    40.00 Ry     beta= 0.70
     Davidson diagonalization with overlap
     ethr =  1.90E-07,  avg # of iterations =  1.0

     total cpu time spent up to now is        6.7 secs

     total energy              =     -16.77779211 Ry
     estimated scf accuracy    <       0.00001142 Ry

     iteration #  6     ecut=    40.00 Ry     beta= 0.70
     Davidson diagonalization with overlap
     ethr =  1.43E-07,  avg # of iterations =  1.0

     total cpu time spent up to now is        6.9 secs

     total energy              =     -16.77779080 Ry
     estimated scf accuracy    <       0.00000892 Ry

     iteration #  7     ecut=    40.00 Ry     beta= 0.70
     Davidson diagonalization with overlap
     ethr =  1.11E-07,  avg # of iterations =  1.0

     total cpu time spent up to now is        7.1 secs

     total energy              =     -16.77779243 Ry
     estimated scf accuracy    <       0.00001420 Ry

     iteration #  8     ecut=    40.00 Ry     beta= 0.70
     Davidson diagonalization with overlap
     ethr =  1.11E-07,  avg # of iterations =  1.0

     total cpu time spent up to now is        7.3 secs

     total energy              =     -16.77779259 Ry
     estimated scf accuracy    <       0.00001034 Ry

     iteration #  9     ecut=    40.00 Ry     beta= 0.70
     Davidson diagonalization with overlap
     ethr =  1.11E-07,  avg # of iterations =  1.0

     total cpu time spent up to now is        7.6 secs

     total energy              =     -16.77779067 Ry
     estimated scf accuracy    <       0.00001080 Ry

     iteration # 10     ecut=    40.00 Ry     beta= 0.70
     Davidson diagonalization with overlap
     ethr =  1.11E-07,  avg # of iterations =  1.0

     total cpu time spent up to now is        7.9 secs

     total energy              =     -16.77779317 Ry
     estimated scf accuracy    <       0.00001448 Ry

     iteration # 11     ecut=    40.00 Ry     beta= 0.70
     Davidson diagonalization with overlap
     ethr =  1.11E-07,  avg # of iterations =  1.0

     total cpu time spent up to now is        8.1 secs

     total energy              =     -16.77779258 Ry
     estimated scf accuracy    <       0.00001282 Ry

     iteration # 12     ecut=    40.00 Ry     beta= 0.70
     Davidson diagonalization with overlap
     ethr =  1.11E-07,  avg # of iterations =  1.0

     total cpu time spent up to now is        8.3 secs

     total energy              =     -16.77779219 Ry
     estimated scf accuracy    <       0.00001063 Ry

     iteration # 13     ecut=    40.00 Ry     beta= 0.70
     Davidson diagonalization with overlap
     ethr =  1.11E-07,  avg # of iterations =  1.0

     total cpu time spent up to now is        8.5 secs

     total energy              =     -16.77779215 Ry
     estimated scf accuracy    <       0.00000915 Ry

     iteration # 14     ecut=    40.00 Ry     beta= 0.70
     Davidson diagonalization with overlap
     ethr =  1.11E-07,  avg # of iterations =  1.0

     total cpu time spent up to now is        8.7 secs

     total energy              =     -16.77779203 Ry
     estimated scf accuracy    <       0.00000898 Ry

     iteration # 15     ecut=    40.00 Ry     beta= 0.70
     Davidson diagonalization with overlap
     ethr =  1.11E-07,  avg # of iterations =  1.0

     total cpu time spent up to now is        9.0 secs

     total energy              =     -16.77779180 Ry
     estimated scf accuracy    <       0.00000853 Ry

     iteration # 16     ecut=    40.00 Ry     beta= 0.70
     Davidson diagonalization with overlap
     ethr =  1.07E-07,  avg # of iterations =  1.0

     total cpu time spent up to now is        9.2 secs

     total energy              =     -16.77779204 Ry
     estimated scf accuracy    <       0.00000953 Ry

     iteration # 17     ecut=    40.00 Ry     beta= 0.70
     Davidson diagonalization with overlap
     ethr =  1.07E-07,  avg # of iterations =  1.0

     total cpu time spent up to now is        9.4 secs

     total energy              =     -16.77779230 Ry
     estimated scf accuracy    <       0.00000908 Ry

     iteration # 18     ecut=    40.00 Ry     beta= 0.70
     Davidson diagonalization with overlap
     ethr =  1.07E-07,  avg # of iterations =  1.0

     total cpu time spent up to now is        9.6 secs

     total energy              =     -16.77779208 Ry
     estimated scf accuracy    <       0.00000968 Ry

     iteration # 19     ecut=    40.00 Ry     beta= 0.70
     Davidson diagonalization with overlap
     ethr =  1.07E-07,  avg # of iterations =  1.0

     total cpu time spent up to now is        9.9 secs

     total energy              =     -16.77779215 Ry
     estimated scf accuracy    <       0.00000926 Ry

     iteration # 20     ecut=    40.00 Ry     beta= 0.70
     Davidson diagonalization with overlap
     ethr =  1.07E-07,  avg # of iterations =  1.0

     total cpu time spent up to now is       10.1 secs

     total energy              =     -16.77779232 Ry
     estimated scf accuracy    <       0.00000949 Ry

     iteration # 21     ecut=    40.00 Ry     beta= 0.70
     Davidson diagonalization with overlap
     ethr =  1.07E-07,  avg # of iterations =  1.0

     total cpu time spent up to now is       10.3 secs

     total energy              =     -16.77779216 Ry
     estimated scf accuracy    <       0.00000973 Ry

     iteration # 22     ecut=    40.00 Ry     beta= 0.70
     Davidson diagonalization with overlap
     ethr =  1.07E-07,  avg # of iterations =  1.0

     total cpu time spent up to now is       10.6 secs

     total energy              =     -16.77779211 Ry
     estimated scf accuracy    <       0.00000956 Ry

     iteration # 23     ecut=    40.00 Ry     beta= 0.70
     Davidson diagonalization with overlap
     ethr =  1.07E-07,  avg # of iterations =  1.0

     total cpu time spent up to now is       10.8 secs

     total energy              =     -16.77779211 Ry
     estimated scf accuracy    <       0.00000936 Ry

     iteration # 24     ecut=    40.00 Ry     beta= 0.70
     Davidson diagonalization with overlap
     ethr =  1.07E-07,  avg # of iterations =  1.0

     total cpu time spent up to now is       11.0 secs

     total energy              =     -16.77778895 Ry
     estimated scf accuracy    <       0.00000935 Ry

     iteration # 25     ecut=    40.00 Ry     beta= 0.70
     Davidson diagonalization with overlap
     ethr =  1.07E-07,  avg # of iterations =  1.0

     total cpu time spent up to now is       11.2 secs

     total energy              =     -16.77779329 Ry
     estimated scf accuracy    <       0.00003657 Ry

     iteration # 26     ecut=    40.00 Ry     beta= 0.70
     Davidson diagonalization with overlap
     ethr =  1.07E-07,  avg # of iterations =  1.0

     total cpu time spent up to now is       11.5 secs

     total energy              =     -16.77779294 Ry
     estimated scf accuracy    <       0.00001486 Ry

     iteration # 27     ecut=    40.00 Ry     beta= 0.70
     Davidson diagonalization with overlap
     ethr =  1.07E-07,  avg # of iterations =  1.0

     total cpu time spent up to now is       11.7 secs

     total energy              =     -16.77779277 Ry
     estimated scf accuracy    <       0.00001220 Ry

     iteration # 28     ecut=    40.00 Ry     beta= 0.70
     Davidson diagonalization with overlap
     ethr =  1.07E-07,  avg # of iterations =  1.0

     total cpu time spent up to now is       11.9 secs

     total energy              =     -16.77779219 Ry
     estimated scf accuracy    <       0.00001143 Ry

     iteration # 29     ecut=    40.00 Ry     beta= 0.70
     Davidson diagonalization with overlap
     ethr =  1.07E-07,  avg # of iterations =  1.0

     total cpu time spent up to now is       12.1 secs

     total energy              =     -16.77779201 Ry
     estimated scf accuracy    <       0.00000918 Ry

     iteration # 30     ecut=    40.00 Ry     beta= 0.70
     Davidson diagonalization with overlap
     ethr =  1.07E-07,  avg # of iterations =  1.0

     total cpu time spent up to now is       12.3 secs

     End of self-consistent calculation

          k = 0.0000 0.0000 0.0000 (  1243 PWs)   bands (ev):

    -6.7178   1.8685   5.5931   6.3427   7.1231   7.4160   9.5664   9.6771

          k =-0.2500 0.2500-0.2500 (  1245 PWs)   bands (ev):

    -6.1452   1.6484   2.3072   5.7546   6.2292   8.0921  10.0315  11.3066

          k = 0.5000-0.5000 0.5000 (  1224 PWs)   bands (ev):

    -5.3303   0.0723   1.4574   5.5597   5.9232   7.4084   9.5909  10.6352

          k = 0.0000 0.5000 0.0000 (  1243 PWs)   bands (ev):

    -5.7685  -0.1028   3.9744   5.0175   5.9242   7.0350   9.4468  11.7117

          k = 0.7500-0.2500 0.7500 (  1236 PWs)   bands (ev):

    -4.8138  -0.6678   1.1710   4.3598   5.8349   8.2387   9.4027  11.5571

          k = 0.5000 0.0000 0.5000 (  1243 PWs)   bands (ev):

    -5.0734  -0.8598   1.7485   5.0947   6.2428   8.4167   9.9508  11.0841

          k = 0.0000-1.0000 0.0000 (  1234 PWs)   bands (ev):

    -3.2171  -3.2169   3.5950   3.5955   4.9563   4.9563  13.0349  13.0350

          k =-0.5000-1.0000 0.0000 (  1232 PWs)   bands (ev):

    -3.1433  -3.1432   2.3368   2.3371   7.6404   7.6406  10.8425  10.8427

          k =-0.2500 0.2500 0.2500 (  1245 PWs)   bands (ev):

    -5.9328  -0.3567   4.9605   5.4829   6.3118   8.1002   9.3121  10.9236

          k = 0.5000-0.5000-0.5000 (  1224 PWs)   bands (ev):

    -3.8587  -3.4535   4.2522   5.7294   5.7686   6.5443  11.1962  11.7943

          k = 0.5000 0.0000 0.0000 (  1243 PWs)   bands (ev):

    -5.8838   1.2121   2.6947   3.9927   5.0221   9.4420  11.4722  11.8295

          k =-0.2500 0.7500-0.7500 (  1236 PWs)   bands (ev):

    -5.0108   0.6363   1.0378   2.8347   4.7552  10.5745  11.1944  11.3147

          k = 0.2500-0.7500-0.7500 (  1236 PWs)   bands (ev):

    -4.4985  -1.6197   1.6312   3.8408   7.0353   8.6108   9.7555  10.3096

          k = 0.7500 0.2500 0.7500 (  1236 PWs)   bands (ev):

    -3.9301  -2.8183   2.8953   4.2070   5.4856   7.8835  10.9537  12.5869

          k = 0.0000 0.5000-0.5000 (  1243 PWs)   bands (ev):

    -5.4119   1.4342   1.7142   2.2268   5.7120  10.4041  10.8741  10.9005

          k = 0.0000-0.5000-0.5000 (  1243 PWs)   bands (ev):

    -4.4760  -2.4186   2.5134   5.1986   7.6762   8.4023   9.7961   9.8875

          k =-1.0000 0.0000 0.0000 (  1234 PWs)   bands (ev):

    -4.5730   0.1548   0.6878   3.0705   4.0502   7.5711  13.7967  14.3888

          k =-1.0000-0.5000 0.0000 (  1232 PWs)   bands (ev):

    -4.1539  -1.4969   1.3753   2.3908   7.0131   9.2475   9.4959  10.9871

     the Fermi energy is     5.4396 ev

!    total energy              =     -16.77779200 Ry
     estimated scf accuracy    <          1.4E-09 Ry

     The total energy is the sum of the following terms:
     one-electron contribution =       3.97426268 Ry
     hartree contribution      =       1.29020732 Ry
     xc contribution           =      -6.16734731 Ry
     ewald contribution        =     -15.87491469 Ry

     convergence has been achieved in  30 iterations

     Forces acting on atoms (cartesian axes, Ry/au):

     atom    1 type  1   force =    -0.13865816    0.00000000    0.00000000
     atom    2 type  1   force =     0.13865816    0.00000000    0.00000000

     Total force =     0.196092     Total SCF correction =     0.000006


     Computing stress (Cartesian axis) and pressure

          total   stress  (Ry/bohr**3)                   (kbar)     P=      137.45
  -0.00011126   0.00000000   0.00000000          -16.37        0.00        0.00
   0.00000000   0.00145715   0.00182830            0.00      214.35      268.95
  -0.00000000   0.00182830   0.00145715           -0.00      268.95      214.35

     Energy error            =      2.7E-02 Ry
     Gradient error          =      1.4E-01 Ry/Bohr

     number of scf cycles    =   2
     number of bfgs steps    =   1

     energy             old  =     -16.7508432937 Ry
     energy             new  =     -16.7777919987 Ry

     CASE: energy            _new < energy            _old


     WARNING: bfgs curvature condition failed, Theta= 0.625
     uphill step: resetting bfgs history

     new trust radius        =       0.1191692109 bohr
     new conv_thr            =       0.0000010000 Ry


ATOMIC_POSITIONS (alat)
Si               0.1783328707        0.0000000000        0.0000000000
Si               0.2716671293        0.2500000000        0.2500000000



     Writing config-only to output data dir ./tmp/force_relax.save/ :
     XML data file
     NEW-OLD atomic charge density approx. for the potential

     total cpu time spent up to now is       12.6 secs

     Self-consistent Calculation

     iteration #  1     ecut=    40.00 Ry     beta= 0.70
     Davidson diagonalization with overlap
     ethr =  1.00E-06,  avg # of iterations =  8.6

     total cpu time spent up to now is       13.2 secs

     total energy              =     -16.81452704 Ry
     estimated scf accuracy    <       0.00078466 Ry

     iteration #  2     ecut=    40.00 Ry     beta= 0.70
     Davidson diagonalization with overlap
     ethr =  9.81E-06,  avg # of iterations =  1.1

     total cpu time spent up to now is       13.5 secs

     total energy              =     -16.81461693 Ry
     estimated scf accuracy    <       0.00006408 Ry

     iteration #  3     ecut=    40.00 Ry     beta= 0.70
     Davidson diagonalization with overlap
     ethr =  8.01E-07,  avg # of iterations =  1.3

     total cpu time spent up to now is       13.7 secs

     total energy              =     -16.81462390 Ry
     estimated scf accuracy    <       0.00001728 Ry

     iteration #  4     ecut=    40.00 Ry     beta= 0.70
     Davidson diagonalization with overlap
     ethr =  2.16E-07,  avg # of iterations =  1.0

     total cpu time spent up to now is       13.9 secs

     total energy              =     -16.81462551 Ry
     estimated scf accuracy    <       0.00001063 Ry

     iteration #  5     ecut=    40.00 Ry     beta= 0.70
     Davidson diagonalization with overlap
     ethr =  1.33E-07,  avg # of iterations =  1.0

     total cpu time spent up to now is       14.2 secs

     total energy              =     -16.81462606 Ry
     estimated scf accuracy    <       0.00000565 Ry

     iteration #  6     ecut=    40.00 Ry     beta= 0.70
     Davidson diagonalization with overlap
     ethr =  7.06E-08,  avg # of iterations =  1.0

     total cpu time spent up to now is       14.4 secs

     total energy              =     -16.81462605 Ry
     estimated scf accuracy    <       0.00000528 Ry

     iteration #  7     ecut=    40.00 Ry     beta= 0.70
     Davidson diagonalization with overlap
     ethr =  6.61E-08,  avg # of iterations =  1.0

     total cpu time spent up to now is       14.7 secs

     total energy              =     -16.81462596 Ry
     estimated scf accuracy    <       0.00000477 Ry

     iteration #  8     ecut=    40.00 Ry     beta= 0.70
     Davidson diagonalization with overlap
     ethr =  5.96E-08,  avg # of iterations =  1.0

     total cpu time spent up to now is       15.0 secs

     total energy              =     -16.81462626 Ry
     estimated scf accuracy    <       0.00000544 Ry

     iteration #  9     ecut=    40.00 Ry     beta= 0.70
     Davidson diagonalization with overlap
     ethr =  5.96E-08,  avg # of iterations =  1.0

     total cpu time spent up to now is       15.3 secs

     total energy              =     -16.81462616 Ry
     estimated scf accuracy    <       0.00000535 Ry

     iteration # 10     ecut=    40.00 Ry     beta= 0.70
     Davidson diagonalization with overlap
     ethr =  5.96E-08,  avg # of iterations =  1.0

     total cpu time spent up to now is       15.6 secs

     total energy              =     -16.81462610 Ry
     estimated scf accuracy    <       0.00000511 Ry

     iteration # 11     ecut=    40.00 Ry     beta= 0.70
     Davidson diagonalization with overlap
     ethr =  5.96E-08,  avg # of iterations =  1.0

     total cpu time spent up to now is       15.8 secs

     total energy              =     -16.81462615 Ry
     estimated scf accuracy    <       0.00000462 Ry

     iteration # 12     ecut=    40.00 Ry     beta= 0.70
     Davidson diagonalization with overlap
     ethr =  5.77E-08,  avg # of iterations =  1.0

     total cpu time spent up to now is       16.1 secs

     End of self-consistent calculation

          k = 0.0000 0.0000 0.0000 (  1243 PWs)   bands (ev):

    -6.6477   2.1147   5.7772   6.4923   6.9474   7.2115   9.0776   9.5781

          k =-0.2500 0.2500-0.2500 (  1245 PWs)   bands (ev):

    -6.0611   1.8775   2.2861   5.8990   6.2424   7.6476   9.9903  11.4133

          k = 0.5000-0.5000 0.5000 (  1224 PWs)   bands (ev):

    -5.2140   0.0070   1.6740   5.6841   6.0433   6.8979   9.5935  11.0410

          k = 0.0000 0.5000 0.0000 (  1243 PWs)   bands (ev):

    -5.6907   0.0768   3.9595   4.9027   5.9272   7.2051   9.5532  11.6346

          k = 0.7500-0.2500 0.7500 (  1236 PWs)   bands (ev):

    -4.7011  -0.5534   1.1573   4.2383   5.9732   8.3495   9.4719  11.5339

          k = 0.5000 0.0000 0.5000 (  1243 PWs)   bands (ev):

    -4.9744  -0.7381   1.7266   4.9790   6.4186   8.5442  10.0794  10.9688

          k = 0.0000-1.0000 0.0000 (  1234 PWs)   bands (ev):

    -3.1057  -3.1057   3.4554   3.4558   5.1367   5.1367  13.2821  13.2821

          k =-0.5000-1.0000 0.0000 (  1232 PWs)   bands (ev):

    -3.0270  -3.0270   2.2800   2.2804   7.7998   7.7999  10.8837  10.8838

          k =-0.2500 0.2500 0.2500 (  1245 PWs)   bands (ev):

    -5.8600  -0.1926   4.7770   5.5725   6.4991   8.0911   9.4039  11.0575

          k = 0.5000-0.5000-0.5000 (  1224 PWs)   bands (ev):

    -3.8387  -3.2747   4.0700   5.6921   5.9711   6.7685  11.0921  12.0253

          k = 0.5000 0.0000 0.0000 (  1243 PWs)   bands (ev):

    -5.7928   1.4154   2.5665   4.0465   5.1479   9.3668  11.4375  11.7740

          k =-0.2500 0.7500-0.7500 (  1236 PWs)   bands (ev):

    -4.8804   0.5228   1.2315   2.7901   4.8999  10.4449  11.1519  11.3728

          k = 0.2500-0.7500-0.7500 (  1236 PWs)   bands (ev):

    -4.3747  -1.5406   1.5734   3.8703   7.2087   8.5391   9.9013  10.4350

          k = 0.7500 0.2500 0.7500 (  1236 PWs)   bands (ev):

    -3.8571  -2.6697   2.8140   4.0836   5.7004   8.0744  11.0377  12.5898

          k = 0.0000 0.5000-0.5000 (  1243 PWs)   bands (ev):

    -5.3022   1.6482   1.7486   2.0713   5.8154  10.1685  10.9435  11.0248

          k = 0.0000-0.5000-0.5000 (  1243 PWs)   bands (ev):

    -4.4127  -2.2497   2.4072   5.1985   7.8684   8.5192   9.9062   9.9792

          k =-1.0000 0.0000 0.0000 (  1234 PWs)   bands (ev):

    -4.4107  -0.0408   0.8664   3.1021   4.1975   7.4994  13.8833  14.4402

          k =-1.0000-0.5000 0.0000 (  1232 PWs)   bands (ev):

    -4.0028  -1.4348   1.3019   2.3952   7.2112   9.3696   9.5331  10.9513

     the Fermi energy is     5.5279 ev

!    total energy              =     -16.81462614 Ry
     estimated scf accuracy    <          3.3E-09 Ry

     The total energy is the sum of the following terms:
     one-electron contribution =       4.03734379 Ry
     hartree contribution      =       1.26547761 Ry
     xc contribution           =      -6.15965280 Ry
     ewald contribution        =     -15.95779473 Ry

     convergence has been achieved in  12 iterations

     Forces acting on atoms (cartesian axes, Ry/au):

     atom    1 type  1   force =    -0.16467964    0.00000000    0.00000000
     atom    2 type  1   force =     0.16467964    0.00000000    0.00000000

     Total force =     0.232892     Total SCF correction =     0.000011


     Computing stress (Cartesian axis) and pressure

          total   stress  (Ry/bohr**3)                   (kbar)     P=      109.15
  -0.00024782   0.00000000   0.00000000          -36.46        0.00        0.00
   0.00000000   0.00123685   0.00161509            0.00      181.95      237.59
   0.00000000   0.00161509   0.00123685            0.00      237.59      181.95

     Energy error            =      3.7E-02 Ry
     Gradient error          =      1.6E-01 Ry/Bohr

     number of scf cycles    =   3
     number of bfgs steps    =   2

     energy             old  =     -16.7777919987 Ry
     energy             new  =     -16.8146261390 Ry

     CASE: energy            _new < energy            _old


     WARNING: bfgs curvature condition failed, Theta= 0.657
     uphill step: resetting bfgs history

     new trust radius        =       0.1646796396 bohr
     new conv_thr            =       0.0000010000 Ry


ATOMIC_POSITIONS (alat)
Si               0.1626490955        0.0000000000        0.0000000000
Si               0.2873509045        0.2500000000        0.2500000000



     Writing config-only to output data dir ./tmp/force_relax.save/ :
     XML data file
     NEW-OLD atomic charge density approx. for the potential

     total cpu time spent up to now is       16.4 secs

     Self-consistent Calculation

     iteration #  1     ecut=    40.00 Ry     beta= 0.70
     Davidson diagonalization with overlap
     ethr =  1.00E-06,  avg # of iterations =  9.9

     total cpu time spent up to now is       17.3 secs

     total energy              =     -16.87069455 Ry
     estimated scf accuracy    <       0.00107593 Ry

     iteration #  2     ecut=    40.00 Ry     beta= 0.70
     Davidson diagonalization with overlap
     ethr =  1.34E-05,  avg # of iterations =  1.3

     total cpu time spent up to now is       17.6 secs

     total energy              =     -16.87081363 Ry
     estimated scf accuracy    <       0.00007300 Ry

     iteration #  3     ecut=    40.00 Ry     beta= 0.70
     Davidson diagonalization with overlap
     ethr =  9.13E-07,  avg # of iterations =  1.3

     total cpu time spent up to now is       17.9 secs

     total energy              =     -16.87082236 Ry
     estimated scf accuracy    <       0.00000822 Ry

     iteration #  4     ecut=    40.00 Ry     beta= 0.70
     Davidson diagonalization with overlap
     ethr =  1.03E-07,  avg # of iterations =  1.4

     total cpu time spent up to now is       18.2 secs

     total energy              =     -16.87082333 Ry
     estimated scf accuracy    <       0.00000479 Ry

     iteration #  5     ecut=    40.00 Ry     beta= 0.70
     Davidson diagonalization with overlap
     ethr =  5.99E-08,  avg # of iterations =  1.0

     total cpu time spent up to now is       18.4 secs

     total energy              =     -16.87082338 Ry
     estimated scf accuracy    <       0.00000173 Ry

     iteration #  6     ecut=    40.00 Ry     beta= 0.70
     Davidson diagonalization with overlap
     ethr =  2.16E-08,  avg # of iterations =  1.1

     total cpu time spent up to now is       18.7 secs

     total energy              =     -16.87082366 Ry
     estimated scf accuracy    <       0.00000257 Ry

     iteration #  7     ecut=    40.00 Ry     beta= 0.70
     Davidson diagonalization with overlap
     ethr =  2.16E-08,  avg # of iterations =  1.0

     total cpu time spent up to now is       18.9 secs

     total energy              =     -16.87082355 Ry
     estimated scf accuracy    <       0.00000211 Ry

     iteration #  8     ecut=    40.00 Ry     beta= 0.70
     Davidson diagonalization with overlap
     ethr =  2.16E-08,  avg # of iterations =  1.0

     total cpu time spent up to now is       19.1 secs

     total energy              =     -16.87082352 Ry
     estimated scf accuracy    <       0.00000167 Ry

     iteration #  9     ecut=    40.00 Ry     beta= 0.70
     Davidson diagonalization with overlap
     ethr =  2.09E-08,  avg # of iterations =  1.0

     total cpu time spent up to now is       19.4 secs

     total energy              =     -16.87082362 Ry
     estimated scf accuracy    <       0.00000198 Ry

     iteration # 10     ecut=    40.00 Ry     beta= 0.70
     Davidson diagonalization with overlap
     ethr =  2.09E-08,  avg # of iterations =  1.0

     total cpu time spent up to now is       19.6 secs

     total energy              =     -16.87082362 Ry
     estimated scf accuracy    <       0.00000196 Ry

     iteration # 11     ecut=    40.00 Ry     beta= 0.70
     Davidson diagonalization with overlap
     ethr =  2.09E-08,  avg # of iterations =  1.0

     total cpu time spent up to now is       19.9 secs

     total energy              =     -16.87082357 Ry
     estimated scf accuracy    <       0.00000202 Ry

     iteration # 12     ecut=    40.00 Ry     beta= 0.70
     Davidson diagonalization with overlap
     ethr =  2.09E-08,  avg # of iterations =  1.0

     total cpu time spent up to now is       20.1 secs

     End of self-consistent calculation

          k = 0.0000 0.0000 0.0000 (  1243 PWs)   bands (ev):

    -6.5283   2.5740   6.0820   6.3825   6.7876   7.3449   8.3661   9.3826

          k =-0.2500 0.2500-0.2500 (  1245 PWs)   bands (ev):

    -5.9151   2.2192   2.3016   6.0650   6.2523   7.2420   9.8804  11.4490

          k = 0.5000-0.5000 0.5000 (  1224 PWs)   bands (ev):

    -5.0024  -0.1400   2.0738   5.8287   6.2184   6.3697   9.5553  11.5315

          k = 0.0000 0.5000 0.0000 (  1243 PWs)   bands (ev):

    -5.5571   0.4065   3.8872   4.6782   5.9904   7.4883   9.7697  11.4779

          k = 0.7500-0.2500 0.7500 (  1236 PWs)   bands (ev):

    -4.4979  -0.3863   1.1485   4.0235   6.1930   8.5822   9.6197  11.4696

          k = 0.5000 0.0000 0.5000 (  1243 PWs)   bands (ev):

    -4.8018  -0.5344   1.6942   4.7780   6.7080   8.8011  10.2974  10.7810

          k = 0.0000-1.0000 0.0000 (  1234 PWs)   bands (ev):

    -2.9095  -2.9095   3.2375   3.2378   5.4038   5.4038  13.7571  13.7571

          k =-0.5000-1.0000 0.0000 (  1232 PWs)   bands (ev):

    -2.8206  -2.8206   2.1651   2.1654   8.0807   8.0808  10.9106  10.9106

          k =-0.2500 0.2500 0.2500 (  1245 PWs)   bands (ev):

    -5.7373   0.1038   4.5497   5.6587   6.7752   8.0596   9.5481  11.2267

          k = 0.5000-0.5000-0.5000 (  1224 PWs)   bands (ev):

    -3.7995  -2.9661   3.8834   5.5411   6.2771   7.1067  10.8244  12.3638

          k = 0.5000 0.0000 0.0000 (  1243 PWs)   bands (ev):

    -5.6364   1.7858   2.3583   4.0961   5.3993   9.1824  11.3501  11.3580

          k =-0.2500 0.7500-0.7500 (  1236 PWs)   bands (ev):

    -4.6443   0.3035   1.5839   2.6941   5.1829  10.2705  11.0631  11.4276

          k = 0.2500-0.7500-0.7500 (  1236 PWs)   bands (ev):

    -4.1590  -1.4192   1.5199   3.8801   7.5015   8.4148  10.1224  10.6222

          k = 0.7500 0.2500 0.7500 (  1236 PWs)   bands (ev):

    -3.7389  -2.3950   2.6814   3.8902   6.0075   8.4016  11.1257  12.4706

          k = 0.0000 0.5000-0.5000 (  1243 PWs)   bands (ev):

    -5.1047   1.7745   1.7817   2.0422   6.0473   9.9274  11.0272  11.2009

          k = 0.0000-0.5000-0.5000 (  1243 PWs)   bands (ev):

    -4.3120  -1.9360   2.2493   5.1468   8.1844   8.6356   9.9830  10.2611

          k =-1.0000 0.0000 0.0000 (  1234 PWs)   bands (ev):

    -4.1099  -0.3826   1.1886   3.1207   4.4776   7.3339  14.0102  14.6650

          k =-1.0000-0.5000 0.0000 (  1232 PWs)   bands (ev):

    -3.7228  -1.3669   1.2263   2.3602   7.5757   9.5522   9.6059  10.8448

     the Fermi energy is     5.6785 ev

!    total energy              =     -16.87082357 Ry
     estimated scf accuracy    <          1.9E-09 Ry

     The total energy is the sum of the following terms:
     one-electron contribution =       4.13455616 Ry
     hartree contribution      =       1.22835875 Ry
     xc contribution           =      -6.14683095 Ry
     ewald contribution        =     -16.08690752 Ry

     convergence has been achieved in  12 iterations

     Forces acting on atoms (cartesian axes, Ry/au):

     atom    1 type  1   force =    -0.17351655   -0.00000000    0.00000000
     atom    2 type  1   force =     0.17351655    0.00000000   -0.00000000

     Total force =     0.245389     Total SCF correction =     0.000012


     Computing stress (Cartesian axis) and pressure

          total   stress  (Ry/bohr**3)                   (kbar)     P=       62.88
  -0.00035889   0.00000000  -0.00000000          -52.79        0.00       -0.00
   0.00000000   0.00082058   0.00128205            0.00      120.71      188.60
  -0.00000000   0.00128205   0.00082058           -0.00      188.60      120.71

     Energy error            =      5.6E-02 Ry
     Gradient error          =      1.7E-01 Ry/Bohr

     number of scf cycles    =   4
     number of bfgs steps    =   3

     energy             old  =     -16.8146261390 Ry
     energy             new  =     -16.8708235700 Ry

     CASE: energy            _new < energy            _old


     WARNING: bfgs curvature condition failed, Theta= 0.759
     new trust radius        =       0.1811476035 bohr
     new conv_thr            =       0.0000010000 Ry


ATOMIC_POSITIONS (alat)
Si               0.1453969428        0.0000000000       -0.0000000000
Si               0.3046030572        0.2500000000        0.2500000000



     Writing config-only to output data dir ./tmp/force_relax.save/ :
     XML data file
     NEW-OLD atomic charge density approx. for the potential

     total cpu time spent up to now is       20.4 secs

     Self-consistent Calculation

     iteration #  1     ecut=    40.00 Ry     beta= 0.70
     Davidson diagonalization with overlap
     ethr =  1.00E-06,  avg # of iterations =  9.5

     total cpu time spent up to now is       21.2 secs

     total energy              =     -16.93484175 Ry
     estimated scf accuracy    <       0.00301633 Ry

     iteration #  2     ecut=    40.00 Ry     beta= 0.70
     Davidson diagonalization with overlap
     ethr =  3.77E-05,  avg # of iterations =  1.6

     total cpu time spent up to now is       21.5 secs

     total energy              =     -16.93527282 Ry
     estimated scf accuracy    <       0.00014567 Ry

     iteration #  3     ecut=    40.00 Ry     beta= 0.70
     Davidson diagonalization with overlap
     ethr =  1.82E-06,  avg # of iterations =  2.0

     total cpu time spent up to now is       21.8 secs

     total energy              =     -16.93529453 Ry
     estimated scf accuracy    <       0.00000853 Ry

     iteration #  4     ecut=    40.00 Ry     beta= 0.70
     Davidson diagonalization with overlap
     ethr =  1.07E-07,  avg # of iterations =  2.0

     total cpu time spent up to now is       22.1 secs

     End of self-consistent calculation

          k = 0.0000 0.0000 0.0000 (  1243 PWs)   bands (ev):

    -6.3819   3.2049   5.9225   6.4866   7.1600   7.5268   7.6032   9.0870

          k =-0.2500 0.2500-0.2500 (  1245 PWs)   bands (ev):

    -5.7337   2.1178   2.8738   5.8339   6.4138   7.3231   9.6824  11.5274

          k = 0.5000-0.5000 0.5000 (  1224 PWs)   bands (ev):

    -4.7253  -0.3485   2.6086   5.5773   6.0068   6.8680   9.4461  11.9688

          k = 0.0000 0.5000 0.0000 (  1243 PWs)   bands (ev):

    -5.3933   0.8412   3.7858   4.3823   6.1389   7.8319  10.0796  11.2618

          k = 0.7500-0.2500 0.7500 (  1236 PWs)   bands (ev):

    -4.2358  -0.2718   1.2303   3.7832   6.4523   8.9275   9.8524  11.3474

          k = 0.5000 0.0000 0.5000 (  1243 PWs)   bands (ev):

    -4.5893  -0.3042   1.6970   4.5549   7.0576   9.1802  10.4929  10.6398

          k = 0.0000-1.0000 0.0000 (  1234 PWs)   bands (ev):

    -2.6666  -2.6661   3.0246   3.0249   5.6860   5.6864  14.4055  14.4055

          k =-0.5000-1.0000 0.0000 (  1232 PWs)   bands (ev):

    -2.5631  -2.5627   2.0306   2.0307   8.4706   8.4709  10.8248  10.8249

          k =-0.2500 0.2500 0.2500 (  1245 PWs)   bands (ev):

    -5.5897   0.4877   4.3967   5.6563   7.0473   8.0825   9.6538  11.2827

          k = 0.5000-0.5000-0.5000 (  1224 PWs)   bands (ev):

    -3.7544  -2.5727   3.8005   5.3286   6.5403   7.5109  10.4022  12.6740

          k = 0.5000 0.0000 0.0000 (  1243 PWs)   bands (ev):

    -5.4452   2.1528   2.2710   4.1118   5.7316   8.9401  11.0739  11.2298

          k =-0.2500 0.7500-0.7500 (  1236 PWs)   bands (ev):

    -4.3379   0.0285   2.0436   2.5730   5.5624  10.1695  10.9313  11.4359

          k = 0.2500-0.7500-0.7500 (  1236 PWs)   bands (ev):

    -3.8978  -1.2873   1.5430   3.8526   7.7027   8.4430  10.3892  10.7844

          k = 0.7500 0.2500 0.7500 (  1236 PWs)   bands (ev):

    -3.6079  -2.0264   2.5492   3.6817   6.3333   8.8227  11.1117  12.2069

          k = 0.0000 0.5000-0.5000 (  1243 PWs)   bands (ev):

    -4.8503   1.4127   1.7942   2.5666   6.3891   9.8464  11.1142  11.3896

          k = 0.0000-0.5000-0.5000 (  1243 PWs)   bands (ev):

    -4.2019  -1.5089   2.1022   5.0278   8.5993   8.6171  10.2204  10.5035

          k =-1.0000 0.0000 0.0000 (  1234 PWs)   bands (ev):

    -3.7006  -0.7926   1.6037   3.1129   4.8487   7.1010  14.1857  15.1664

          k =-1.0000-0.5000 0.0000 (  1232 PWs)   bands (ev):

    -3.3449  -1.3620   1.2375   2.2840   8.0654   9.7257   9.7479  10.6642

     the Fermi energy is     5.8084 ev

!    total energy              =     -16.93529543 Ry
     estimated scf accuracy    <       0.00000061 Ry

     The total energy is the sum of the following terms:
     one-electron contribution =       4.22862541 Ry
     hartree contribution      =       1.19894693 Ry
     xc contribution           =      -6.13638426 Ry
     ewald contribution        =     -16.22648351 Ry

     convergence has been achieved in   4 iterations

     Forces acting on atoms (cartesian axes, Ry/au):

     atom    1 type  1   force =    -0.17435688    0.00000000    0.00000000
     atom    2 type  1   force =     0.17435688    0.00000000    0.00000000

     Total force =     0.246578     Total SCF correction =     0.000260


     Computing stress (Cartesian axis) and pressure

          total   stress  (Ry/bohr**3)                   (kbar)     P=       -0.96
  -0.00048175   0.00000000  -0.00000000          -70.87        0.00       -0.00
   0.00000000   0.00023106   0.00095529            0.00       33.99      140.53
  -0.00000000   0.00095529   0.00023106           -0.00      140.53       33.99

     Energy error            =      6.4E-02 Ry
     Gradient error          =      1.7E-01 Ry/Bohr

     number of scf cycles    =   5
     number of bfgs steps    =   4

     energy             old  =     -16.8708235700 Ry
     energy             new  =     -16.9352954303 Ry

     CASE: energy            _new < energy            _old


     WARNING: bfgs curvature condition failed, Theta= 0.786
     new trust radius        =       0.2717214053 bohr
     new conv_thr            =       0.0000010000 Ry


ATOMIC_POSITIONS (alat)
Si               0.1195187138        0.0000000000        0.0000000000
Si               0.3304812862        0.2500000000        0.2500000000



     Writing config-only to output data dir ./tmp/force_relax.save/ :
     XML data file
     NEW-OLD atomic charge density approx. for the potential

     total cpu time spent up to now is       22.3 secs

     Self-consistent Calculation

     iteration #  1     ecut=    40.00 Ry     beta= 0.70
     Davidson diagonalization with overlap
     ethr =  1.00E-06,  avg # of iterations = 11.4

     total cpu time spent up to now is       23.2 secs

     total energy              =     -17.01025678 Ry
     estimated scf accuracy    <       0.00331680 Ry

     iteration #  2     ecut=    40.00 Ry     beta= 0.70
     Davidson diagonalization with overlap
     ethr =  4.15E-05,  avg # of iterations =  1.3

     total cpu time spent up to now is       23.4 secs

     total energy              =     -17.01061288 Ry
     estimated scf accuracy    <       0.00013484 Ry

     iteration #  3     ecut=    40.00 Ry     beta= 0.70
     Davidson diagonalization with overlap
     ethr =  1.69E-06,  avg # of iterations =  1.8

     total cpu time spent up to now is       23.7 secs

     total energy              =     -17.01062938 Ry
     estimated scf accuracy    <       0.00000800 Ry

     iteration #  4     ecut=    40.00 Ry     beta= 0.70
     Davidson diagonalization with overlap
     ethr =  1.00E-07,  avg # of iterations =  2.1

     total cpu time spent up to now is       24.0 secs

     End of self-consistent calculation

          k = 0.0000 0.0000 0.0000 (  1243 PWs)   bands (ev):

    -6.1857   4.3907   5.4904   6.3825   7.2496   7.6656   7.7759   8.4551

          k =-0.2500 0.2500-0.2500 (  1245 PWs)   bands (ev):

    -5.4757   1.8602   3.8976   5.1312   6.7837   8.0772   9.2135  11.6472

          k = 0.5000-0.5000 0.5000 (  1224 PWs)   bands (ev):

    -4.2582  -0.8209   3.5495   4.7444   6.3264   7.8500   9.0990  12.5042

          k = 0.0000 0.5000 0.0000 (  1243 PWs)   bands (ev):

    -5.1731   1.5550   3.6526   3.8425   6.3899   8.2673  10.6402  10.9521

          k = 0.7500-0.2500 0.7500 (  1236 PWs)   bands (ev):

    -3.8152  -0.4418   1.6368   3.4459   6.7731   9.4797  10.3736  11.0602

          k = 0.5000 0.0000 0.5000 (  1243 PWs)   bands (ev):

    -4.2968  -0.0510   1.7933   4.2388   7.5314   9.8470  10.2017  10.9781

          k = 0.0000-1.0000 0.0000 (  1234 PWs)   bands (ev):

    -2.3291  -2.3291   2.7737   2.7738   6.0087   6.0087  14.8821  14.8822

          k =-0.5000-1.0000 0.0000 (  1232 PWs)   bands (ev):

    -2.1997  -2.1997   1.8380   1.8381   9.1669   9.1669  10.3870  10.3870

          k =-0.2500 0.2500 0.2500 (  1245 PWs)   bands (ev):

    -5.4053   1.1246   4.4047   5.2837   7.1905   8.3804   9.3807  11.3649

          k = 0.5000-0.5000-0.5000 (  1224 PWs)   bands (ev):

    -3.7830  -1.8677   3.9259   4.8264   6.6673   8.1933   9.5068  12.8702

          k = 0.5000 0.0000 0.0000 (  1243 PWs)   bands (ev):

    -5.1854   1.9012   3.0804   3.9625   6.2724   8.5377  10.8548  10.9886

          k =-0.2500 0.7500-0.7500 (  1236 PWs)   bands (ev):

    -3.8383  -0.4750   2.3118   2.8060   6.2738  10.0328  10.7051  11.3074

          k = 0.2500-0.7500-0.7500 (  1236 PWs)   bands (ev):

    -3.5764  -1.0879   1.7602   3.6592   7.3553   9.0963  10.8045  10.8189

          k = 0.7500 0.2500 0.7500 (  1236 PWs)   bands (ev):

    -3.4989  -1.3543   2.3254   3.3861   6.7292   9.4431  10.8628  11.6049

          k = 0.0000 0.5000-0.5000 (  1243 PWs)   bands (ev):

    -4.4417   0.6758   1.8216   3.4769   7.0870   9.9960  11.1685  11.6471

          k = 0.0000-0.5000-0.5000 (  1243 PWs)   bands (ev):

    -4.1203  -0.6898   1.9235   4.6447   8.1994   9.3660  10.5016  10.7392

          k =-1.0000 0.0000 0.0000 (  1234 PWs)   bands (ev):

    -2.9090  -1.5580   2.2747   2.9792   5.5365   6.5965  14.5310  14.9374

          k =-1.0000-0.5000 0.0000 (  1232 PWs)   bands (ev):

    -2.6420  -1.6395   1.4753   2.0563   8.9289   9.8557   9.9796  10.2275

     the Fermi energy is     5.9450 ev

!    total energy              =     -17.01063091 Ry
     estimated scf accuracy    <       0.00000008 Ry

     The total energy is the sum of the following terms:
     one-electron contribution =       4.31836659 Ry
     hartree contribution      =       1.18054857 Ry
     xc contribution           =      -6.13084558 Ry
     ewald contribution        =     -16.37870049 Ry

     convergence has been achieved in   4 iterations

     Forces acting on atoms (cartesian axes, Ry/au):

     atom    1 type  1   force =    -0.09444964    0.00000000    0.00000000
     atom    2 type  1   force =     0.09444964    0.00000000    0.00000000

     Total force =     0.133572     Total SCF correction =     0.000074


     Computing stress (Cartesian axis) and pressure

          total   stress  (Ry/bohr**3)                   (kbar)     P=      -54.14
  -0.00046243   0.00000000   0.00000000          -68.03        0.00        0.00
   0.00000000  -0.00032085   0.00035786            0.00      -47.20       52.64
   0.00000000   0.00035786  -0.00032085            0.00       52.64      -47.20

     Energy error            =      7.5E-02 Ry
     Gradient error          =      9.4E-02 Ry/Bohr

     number of scf cycles    =   6
     number of bfgs steps    =   5

     energy             old  =     -16.9352954303 Ry
     energy             new  =     -17.0106309135 Ry

     CASE: energy            _new < energy            _old

     new trust radius        =       0.3211722470 bohr
     new conv_thr            =       0.0000009445 Ry


ATOMIC_POSITIONS (alat)
Si               0.0889308807       -0.0000000000       -0.0000000000
Si               0.3610691193        0.2500000000        0.2500000000



     Writing config-only to output data dir ./tmp/force_relax.save/ :
     XML data file
     NEW-OLD atomic charge density approx. for the potential

     total cpu time spent up to now is       25.4 secs

     Self-consistent Calculation

     iteration #  1     ecut=    40.00 Ry     beta= 0.70
     Davidson diagonalization with overlap
     ethr =  1.00E-06,  avg # of iterations = 10.9

     total cpu time spent up to now is       26.3 secs

     total energy              =     -17.02395705 Ry
     estimated scf accuracy    <       0.00288991 Ry

     iteration #  2     ecut=    40.00 Ry     beta= 0.70
     Davidson diagonalization with overlap
     ethr =  3.61E-05,  avg # of iterations =  1.0

     total cpu time spent up to now is       26.5 secs

     total energy              =     -17.02403091 Ry
     estimated scf accuracy    <       0.00017163 Ry

     iteration #  3     ecut=    40.00 Ry     beta= 0.70
     Davidson diagonalization with overlap
     ethr =  2.15E-06,  avg # of iterations =  1.0

     total cpu time spent up to now is       26.8 secs

     total energy              =     -17.02403703 Ry
     estimated scf accuracy    <       0.00000168 Ry

     iteration #  4     ecut=    40.00 Ry     beta= 0.70
     Davidson diagonalization with overlap
     ethr =  2.09E-08,  avg # of iterations =  3.8

     total cpu time spent up to now is       27.1 secs

     End of self-consistent calculation

          k = 0.0000 0.0000 0.0000 (  1243 PWs)   bands (ev):

    -6.1479   4.8177   5.4220   5.9590   7.5175   7.7576   7.8333   8.2101

          k =-0.2500 0.2500-0.2500 (  1245 PWs)   bands (ev):

    -5.3772   1.3188   4.4910   5.0479   7.1522   8.5418   9.1480  11.4693

          k = 0.5000-0.5000 0.5000 (  1224 PWs)   bands (ev):

    -3.8400  -1.6250   4.0419   4.5975   6.6359   8.4141   9.1625  12.8528

          k = 0.0000 0.5000 0.0000 (  1243 PWs)   bands (ev):

    -5.1305   1.7323   3.6271   3.6975   6.4427   8.3460  10.7818  10.8907

          k = 0.7500-0.2500 0.7500 (  1236 PWs)   bands (ev):

    -3.5132  -1.1262   2.2203   3.3283   6.8049   9.5856  10.7801  11.3765

          k = 0.5000 0.0000 0.5000 (  1243 PWs)   bands (ev):

    -4.2390  -0.0127   1.8299   4.1700   7.6275   9.9624  10.1966  11.0280

          k = 0.0000-1.0000 0.0000 (  1234 PWs)   bands (ev):

    -2.2620  -2.2620   2.7264   2.7264   6.0655   6.0655  14.8117  14.8117

          k =-0.5000-1.0000 0.0000 (  1232 PWs)   bands (ev):

    -2.1263  -2.1263   1.7975   1.7975   9.3886   9.3886  10.1995  10.1995

          k =-0.2500 0.2500 0.2500 (  1245 PWs)   bands (ev):

    -5.4182   1.7392   4.2415   4.9145   6.9058   8.3806   9.0294  11.6462

          k = 0.5000-0.5000-0.5000 (  1224 PWs)   bands (ev):

    -4.1167  -1.0207   3.8613   4.5132   6.4301   8.2082   8.9357  12.6383

          k = 0.5000 0.0000 0.0000 (  1243 PWs)   bands (ev):

    -5.1347   1.8544   3.3284   3.8391   6.4001   8.4386  10.8391  10.9217

          k =-0.2500 0.7500-0.7500 (  1236 PWs)   bands (ev):

    -3.5432  -0.9980   1.8740   3.5323   7.1519   9.3534  10.7640  10.9474

          k = 0.2500-0.7500-0.7500 (  1236 PWs)   bands (ev):

    -3.7028  -0.6422   2.1994   3.0401   6.5241   9.9118  10.6816  11.2281

          k = 0.7500 0.2500 0.7500 (  1236 PWs)   bands (ev):

    -3.6983  -0.5921   1.8142   3.3675   6.8291   9.6033  10.5623  10.9986

          k = 0.0000 0.5000-0.5000 (  1243 PWs)   bands (ev):

    -4.1399  -0.3926   1.8854   4.4472   7.9892  10.4073  10.8887  11.8964

          k = 0.0000-0.5000-0.5000 (  1243 PWs)   bands (ev):

    -4.3273   0.3946   1.8311   3.7727   7.3415  10.0992  10.3025  11.1350

          k =-1.0000 0.0000 0.0000 (  1234 PWs)   bands (ev):

    -2.6191  -1.8409   2.4748   2.8805   5.7780   6.3903  14.6425  14.8810

          k =-1.0000-0.5000 0.0000 (  1232 PWs)   bands (ev):

    -2.3986  -1.8131   1.6006   1.9446   9.2128   9.8042  10.0181  10.1008

     the Fermi energy is     5.8803 ev

!    total energy              =     -17.02403839 Ry
     estimated scf accuracy    <       0.00000016 Ry

     The total energy is the sum of the following terms:
     one-electron contribution =       4.33192522 Ry
     hartree contribution      =       1.17895072 Ry
     xc contribution           =      -6.13044641 Ry
     ewald contribution        =     -16.40446792 Ry

     convergence has been achieved in   4 iterations

     Forces acting on atoms (cartesian axes, Ry/au):

     atom    1 type  1   force =     0.05593672    0.00000000    0.00000000
     atom    2 type  1   force =    -0.05593672    0.00000000    0.00000000

     Total force =     0.079106     Total SCF correction =     0.000146


     Computing stress (Cartesian axis) and pressure

          total   stress  (Ry/bohr**3)                   (kbar)     P=      -62.59
  -0.00045477   0.00000000   0.00000000          -66.90        0.00        0.00
   0.00000000  -0.00041087  -0.00019412            0.00      -60.44      -28.56
   0.00000000  -0.00019412  -0.00041087            0.00      -28.56      -60.44

     Energy error            =      1.3E-02 Ry
     Gradient error          =      5.6E-02 Ry/Bohr

     number of scf cycles    =   7
     number of bfgs steps    =   6

     energy             old  =     -17.0106309135 Ry
     energy             new  =     -17.0240383894 Ry

     CASE: energy            _new < energy            _old

     new trust radius        =       0.1194611221 bohr
     new conv_thr            =       0.0000005594 Ry


ATOMIC_POSITIONS (alat)
Si               0.1003081304       -0.0000000000       -0.0000000000
Si               0.3496918696        0.2500000000        0.2500000000



     Writing config-only to output data dir ./tmp/force_relax.save/ :
     XML data file
     NEW-OLD atomic charge density approx. for the potential

     total cpu time spent up to now is       27.4 secs

     Self-consistent Calculation

     iteration #  1     ecut=    40.00 Ry     beta= 0.70
     Davidson diagonalization with overlap
     ethr =  1.00E-06,  avg # of iterations =  8.8

     total cpu time spent up to now is       28.2 secs

     total energy              =     -17.03059067 Ry
     estimated scf accuracy    <       0.00039003 Ry

     iteration #  2     ecut=    40.00 Ry     beta= 0.70
     Davidson diagonalization with overlap
     ethr =  4.88E-06,  avg # of iterations =  1.0

     total cpu time spent up to now is       28.4 secs

     total energy              =     -17.03059713 Ry
     estimated scf accuracy    <       0.00002462 Ry

     iteration #  3     ecut=    40.00 Ry     beta= 0.70
     Davidson diagonalization with overlap
     ethr =  3.08E-07,  avg # of iterations =  1.0

     total cpu time spent up to now is       28.7 secs

     End of self-consistent calculation

          k = 0.0000 0.0000 0.0000 (  1243 PWs)   bands (ev):

    -6.1302   5.3720   5.3880   5.4039   7.7957   7.8586   7.8684   7.8783

          k =-0.2500 0.2500-0.2500 (  1245 PWs)   bands (ev):

    -5.3780   1.5519   4.6578   4.6751   7.0443   8.7687   8.7866  11.5900

          k = 0.5000-0.5000 0.5000 (  1224 PWs)   bands (ev):

    -3.9624  -1.3049   4.2382   4.2550   6.5462   8.6748   8.6955  12.7703

          k = 0.0000 0.5000 0.0000 (  1243 PWs)   bands (ev):

    -5.1104   1.8296   3.6134   3.6134   6.4687   8.3837  10.8588  10.8588

          k = 0.7500-0.2500 0.7500 (  1236 PWs)   bands (ev):

    -3.5840  -0.8345   2.0308   3.3121   6.8491   9.6652  10.7040  11.0923

          k = 0.5000 0.0000 0.5000 (  1243 PWs)   bands (ev):

    -4.2111   0.0036   1.8502   4.1328   7.6756   9.9735  10.2530  11.0399

          k = 0.0000-1.0000 0.0000 (  1234 PWs)   bands (ev):

    -2.2295  -2.2295   2.7016   2.7016   6.0926   6.0926  14.7737  14.7737

          k =-0.5000-1.0000 0.0000 (  1232 PWs)   bands (ev):

    -2.0905  -2.0905   1.7758   1.7758   9.5556   9.5556  10.0462  10.0462

          k =-0.2500 0.2500 0.2500 (  1245 PWs)   bands (ev):

    -5.3769   1.5402   4.6632   4.6805   7.0515   8.7726   8.7904  11.5849

          k = 0.5000-0.5000-0.5000 (  1224 PWs)   bands (ev):

    -3.9546  -1.3218   4.2419   4.2587   6.5523   8.6807   8.7015  12.7764

          k = 0.5000 0.0000 0.0000 (  1243 PWs)   bands (ev):

    -5.1104   1.8297   3.6062   3.6205   6.4686   8.3838  10.8575  10.8601

          k =-0.2500 0.7500-0.7500 (  1236 PWs)   bands (ev):

    -3.5837  -0.8370   2.0411   3.3046   6.8400   9.6730  10.7046  11.1025

          k = 0.2500-0.7500-0.7500 (  1236 PWs)   bands (ev):

    -3.5791  -0.8470   2.0320   3.3183   6.8576   9.6571  10.7075  11.0945

          k = 0.7500 0.2500 0.7500 (  1236 PWs)   bands (ev):

    -3.5788  -0.8496   2.0423   3.3109   6.8484   9.6648  10.7081  11.1049

          k = 0.0000 0.5000-0.5000 (  1243 PWs)   bands (ev):

    -4.2138   0.0147   1.8494   4.1234   7.6665  10.2486  11.0431  11.8040

          k = 0.0000-0.5000-0.5000 (  1243 PWs)   bands (ev):

    -4.2085  -0.0074   1.8510   4.1422   7.6847   9.9639  10.2576  11.0365

          k =-1.0000 0.0000 0.0000 (  1234 PWs)   bands (ev):

    -2.2404  -2.2185   2.6959   2.7071   6.0841   6.1012  14.7701  14.7771

          k =-1.0000-0.5000 0.0000 (  1232 PWs)   bands (ev):

    -2.0987  -2.0822   1.7710   1.7806   9.5470   9.5645  10.0453  10.0467

     the Fermi energy is     5.8621 ev

!    total energy              =     -17.03059799 Ry
     estimated scf accuracy    <       0.00000010 Ry

     The total energy is the sum of the following terms:
     one-electron contribution =       4.33862826 Ry
     hartree contribution      =       1.17771537 Ry
     xc contribution           =      -6.13004295 Ry
     ewald contribution        =     -16.41689866 Ry

     convergence has been achieved in   3 iterations

     Forces acting on atoms (cartesian axes, Ry/au):

     atom    1 type  1   force =    -0.00141354    0.00000000    0.00000000
     atom    2 type  1   force =     0.00141354    0.00000000    0.00000000

     Total force =     0.001999     Total SCF correction =     0.000034


     Computing stress (Cartesian axis) and pressure

          total   stress  (Ry/bohr**3)                   (kbar)     P=      -66.70
  -0.00045351   0.00000000   0.00000000          -66.71        0.00        0.00
   0.00000000  -0.00045338   0.00000498            0.00      -66.70        0.73
  -0.00000000   0.00000498  -0.00045338           -0.00        0.73      -66.70

     Energy error            =      6.6E-03 Ry
     Gradient error          =      1.4E-03 Ry/Bohr

     number of scf cycles    =   8
     number of bfgs steps    =   7

     energy             old  =     -17.0240383894 Ry
     energy             new  =     -17.0305979881 Ry

     CASE: energy            _new < energy            _old

     new trust radius        =       0.0029444069 bohr
     new conv_thr            =       0.0000000141 Ry


ATOMIC_POSITIONS (alat)
Si               0.1000277107       -0.0000000000       -0.0000000000
Si               0.3499722893        0.2500000000        0.2500000000



     Writing config-only to output data dir ./tmp/force_relax.save/ :
     XML data file
     NEW-OLD atomic charge density approx. for the potential

     total cpu time spent up to now is       28.9 secs

     Self-consistent Calculation

     iteration #  1     ecut=    40.00 Ry     beta= 0.70
     Davidson diagonalization with overlap
     ethr =  1.00E-06,  avg # of iterations =  2.0

     Threshold (ethr) on eigenvalues was too large:
     Diagonalizing with lowered threshold

     Davidson diagonalization with overlap
     ethr =  3.52E-09,  avg # of iterations =  3.6

     total cpu time spent up to now is       29.6 secs

     total energy              =     -17.03060328 Ry
     estimated scf accuracy    <       0.00000034 Ry

     iteration #  2     ecut=    40.00 Ry     beta= 0.70
     Davidson diagonalization with overlap
     ethr =  4.21E-09,  avg # of iterations =  1.3

     total cpu time spent up to now is       29.8 secs

     total energy              =     -17.03060329 Ry
     estimated scf accuracy    <       0.00000002 Ry

     iteration #  3     ecut=    40.00 Ry     beta= 0.70
     Davidson diagonalization with overlap
     ethr =  2.50E-10,  avg # of iterations =  1.1

     total cpu time spent up to now is       30.1 secs

     End of self-consistent calculation

          k = 0.0000 0.0000 0.0000 (  1243 PWs)   bands (ev):

    -6.1302   5.3865   5.3879   5.3894   7.7958   7.8676   7.8685   7.8693

          k =-0.2500 0.2500-0.2500 (  1245 PWs)   bands (ev):

    -5.3775   1.5466   4.6681   4.6697   7.0476   8.7786   8.7802  11.5877

          k = 0.5000-0.5000 0.5000 (  1224 PWs)   bands (ev):

    -3.9589  -1.3125   4.2475   4.2491   6.5490   8.6869   8.6888  12.7731

          k = 0.0000 0.5000 0.0000 (  1243 PWs)   bands (ev):

    -5.1104   1.8297   3.6134   3.6134   6.4687   8.3837  10.8588  10.8588

          k = 0.7500-0.2500 0.7500 (  1236 PWs)   bands (ev):

    -3.5816  -0.8413   2.0360   3.3115   6.8488   9.6651  10.7059  11.0979

          k = 0.5000 0.0000 0.5000 (  1243 PWs)   bands (ev):

    -4.2111   0.0036   1.8502   4.1328   7.6756   9.9735  10.2531  11.0398

          k = 0.0000-1.0000 0.0000 (  1234 PWs)   bands (ev):

    -2.2295  -2.2295   2.7015   2.7015   6.0927   6.0927  14.7736  14.7736

          k =-0.5000-1.0000 0.0000 (  1232 PWs)   bands (ev):

    -2.0904  -2.0904   1.7758   1.7758   9.5558   9.5558  10.0460  10.0460

          k =-0.2500 0.2500 0.2500 (  1245 PWs)   bands (ev):

    -5.3774   1.5455   4.6686   4.6702   7.0482   8.7790   8.7806  11.5872

          k = 0.5000-0.5000-0.5000 (  1224 PWs)   bands (ev):

    -3.9582  -1.3141   4.2479   4.2494   6.5495   8.6875   8.6893  12.7737

          k = 0.5000 0.0000 0.0000 (  1243 PWs)   bands (ev):

    -5.1104   1.8297   3.6127   3.6140   6.4687   8.3837  10.8587  10.8589

          k =-0.2500 0.7500-0.7500 (  1236 PWs)   bands (ev):

    -3.5816  -0.8415   2.0370   3.3108   6.8480   9.6658  10.7059  11.0989

          k = 0.2500-0.7500-0.7500 (  1236 PWs)   bands (ev):

    -3.5812  -0.8425   2.0361   3.3121   6.8496   9.6643  10.7062  11.0982

          k = 0.7500 0.2500 0.7500 (  1236 PWs)   bands (ev):

    -3.5811  -0.8427   2.0371   3.3114   6.8488   9.6650  10.7062  11.0991

          k = 0.0000 0.5000-0.5000 (  1243 PWs)   bands (ev):

    -4.2113   0.0046   1.8501   4.1319   7.6748   9.9743  10.2527  11.0401

          k = 0.0000-0.5000-0.5000 (  1243 PWs)   bands (ev):

    -4.2109   0.0026   1.8502   4.1337   7.6765   9.9726  10.2535  11.0395

          k =-1.0000 0.0000 0.0000 (  1234 PWs)   bands (ev):

    -2.2305  -2.2285   2.7010   2.7021   6.0919   6.0934  14.7733  14.7739

          k =-1.0000-0.5000 0.0000 (  1232 PWs)   bands (ev):

    -2.0912  -2.0897   1.7753   1.7762   9.5550   9.5566  10.0459  10.0461

     the Fermi energy is     5.8665 ev

!    total energy              =     -17.03060329 Ry
     estimated scf accuracy    <          1.1E-10 Ry

     The total energy is the sum of the following terms:
     one-electron contribution =       4.33864140 Ry
     hartree contribution      =       1.17769675 Ry
     xc contribution           =      -6.13003316 Ry
     ewald contribution        =     -16.41690828 Ry

     convergence has been achieved in   3 iterations

     Forces acting on atoms (cartesian axes, Ry/au):

     atom    1 type  1   force =    -0.00015222    0.00000000    0.00000000
     atom    2 type  1   force =     0.00015222    0.00000000    0.00000000

     Total force =     0.000215     Total SCF correction =     0.000000


     Computing stress (Cartesian axis) and pressure

          total   stress  (Ry/bohr**3)                   (kbar)     P=      -66.74
  -0.00045365  -0.00000000   0.00000000          -66.73       -0.00        0.00
  -0.00000000  -0.00045367   0.00000047           -0.00      -66.74        0.07
   0.00000000   0.00000047  -0.00045367            0.00        0.07      -66.74

     Energy error            =      5.3E-06 Ry
     Gradient error          =      1.5E-04 Ry/Bohr

     bfgs converged in   9 scf cycles and   8 bfgs steps
     (criteria: energy <  1.0E-04 Ry, force <  1.0E-03 Ry/Bohr)

     End of BFGS Geometry Optimization

     Final energy             =     -17.0306032914 Ry

     File ./tmp/force_relax.bfgs deleted, as requested
Begin final coordinates

ATOMIC_POSITIONS (alat)
Si               0.1000277107       -0.0000000000       -0.0000000000
Si               0.3499722893        0.2500000000        0.2500000000
End final coordinates



     Writing all to output data dir ./tmp/force_relax.save/ :
     XML data file, charge density, pseudopotentials, collected wavefunctions

     init_run     :      0.16s CPU      0.14s WALL (       1 calls)
     electrons    :     27.49s CPU     26.75s WALL (       9 calls)
     update_pot   :      0.02s CPU      0.02s WALL (       8 calls)
     forces       :      0.42s CPU      0.43s WALL (       9 calls)
     stress       :      1.77s CPU      2.91s WALL (       9 calls)

     Called by init_run:
     wfcinit      :      0.09s CPU      0.08s WALL (       1 calls)
     potinit      :      0.02s CPU      0.02s WALL (       1 calls)
     hinit0       :      0.04s CPU      0.04s WALL (       1 calls)

     Called by electrons:
     c_bands      :     23.03s CPU     22.44s WALL (      94 calls)
     sum_band     :      4.17s CPU      4.02s WALL (      94 calls)
     v_of_rho     :      0.15s CPU      0.14s WALL (     101 calls)
     mix_rho      :      0.13s CPU      0.12s WALL (      94 calls)

     Called by c_bands:
     init_us_2    :      0.94s CPU      0.91s WALL (    3726 calls)
     cegterg      :     20.52s CPU     20.01s WALL (    1692 calls)

     Called by *egterg:
     cdiaghg      :      0.30s CPU      0.29s WALL (    4753 calls)
     h_psi        :     17.50s CPU     17.05s WALL (    4951 calls)
     g_psi        :      0.09s CPU      0.08s WALL (    3241 calls)

     Called by h_psi:
     h_psi:calbec :      2.08s CPU      2.02s WALL (    4951 calls)
     vloc_psi     :     13.59s CPU     13.25s WALL (    4951 calls)
     add_vuspsi   :      1.76s CPU      1.71s WALL (    4951 calls)

     General routines
     calbec       :      3.33s CPU      4.42s WALL (    7705 calls)
     fft          :      0.10s CPU      0.10s WALL (     376 calls)
     ffts         :      0.03s CPU      0.03s WALL (      94 calls)
     fftw         :     14.35s CPU     13.97s WALL (   81996 calls)


     PWSCF        :     29.93s CPU     30.34s WALL


   This run was terminated on:  12:31:27  16May2025            

=------------------------------------------------------------------------------=
   JOB DONE.
=------------------------------------------------------------------------------=
