
     Program PWSCF v.7.4.1 starts on 16May2025 at 12:39:38 

     This program is part of the open-source Quantum ESPRESSO suite
     for quantum simulation of materials; please cite
         "P. Giannozzi et al., J. Phys.:Condens. Matter 21 395502 (2009);
         "P. Giannozzi et al., J. Phys.:Condens. Matter 29 465901 (2017);
         "P. Giannozzi et al., J. Chem. Phys. 152 154105 (2020);
          URL http://www.quantum-espresso.org", 
     in publications or presentations arising from this work. More details at
     http://www.quantum-espresso.org/quote

     Serial version
     2718 MiB available memory on the printing compute node when the environment starts

     Waiting for input...
     Reading input from standard input

     Current dimensions of program PWSCF are:
     Max number of different atomic species (ntypx) = 10
     Max number of k-points (npk) =  40000
     Max angular momentum in pseudopotentials (lmaxx) =  4

     Atomic positions and unit cell read from directory:
     ./tmp/si.save/



     G-vector sticks info
     --------------------
     sticks:   dense  smooth     PW     G-vecs:    dense   smooth      PW
     Sum        2299    2299    649                72929    72929   10969

     Using Slab Decomposition



     bravais-lattice index     =            2
     lattice parameter (alat)  =      10.2157  a.u.
     unit-cell volume          =     266.5328 (a.u.)^3
     number of atoms/cell      =            2
     number of atomic types    =            1
     number of electrons       =         8.00
     number of Kohn-Sham states=           10
     kinetic-energy cutoff     =     160.0000  Ry
     charge density cutoff     =     640.0000  Ry
     Exchange-correlation= SLA  PW   NOGX NOGC
                           (   1   4   0   0   0   0   0)

     celldm(1)=  10.215749  celldm(2)=   0.000000  celldm(3)=   0.000000
     celldm(4)=   0.000000  celldm(5)=   0.000000  celldm(6)=   0.000000

     crystal axes: (cart. coord. in units of alat)
               a(1) = (  -0.500000   0.000000   0.500000 )  
               a(2) = (   0.000000   0.500000   0.500000 )  
               a(3) = (  -0.500000   0.500000   0.000000 )  

     reciprocal axes: (cart. coord. in units 2 pi/alat)
               b(1) = ( -1.000000 -1.000000  1.000000 )  
               b(2) = (  1.000000  1.000000  1.000000 )  
               b(3) = ( -1.000000  1.000000 -1.000000 )  


     PseudoPot. # 1 for Si read from file:
     ./pseudo/Si.LDA.upf
     MD5 check sum: 9e2d726316af3d4752eea8ab0afbb951
     Pseudo is Norm-conserving + core correction, Zval =  4.0
     Generated using ONCVPSP code by D. R. Hamann
     Using radial grid of 1510 points,  6 beta functions with: 
                l(1) =   0
                l(2) =   0
                l(3) =   1
                l(4) =   1
                l(5) =   2
                l(6) =   2

     atomic species   valence    mass     pseudopotential
     Si                4.00    28.08550     Si( 1.00)

     48 Sym. Ops., with inversion, found (24 have fractional translation)



   Cartesian axes

     site n.     atom                  positions (alat units)
         1        Si     tau(   1) = (   0.0000000   0.0000000   0.0000000  )
         2        Si     tau(   2) = (  -0.2500000   0.2500000   0.2500000  )

     number of k points=   145 (tetrahedron method)

     Number of k-points >= 100: set verbosity='high' to print them.

     Dense  grid:    72929 G-vectors     FFT dimensions: (  60,  60,  60)

     Estimated max dynamical RAM per process >      38.60 MB

     The potential is recalculated from file :
     ./tmp/si.save/charge-density

     Starting wfcs are    8 randomized atomic wfcs +    2 random wfcs

     Band Structure Calculation
     Davidson diagonalization with overlap

     ethr =  1.25E-09,  avg # of iterations = 36.8

     total cpu time spent up to now is      213.7 secs

     End of band structure calculation

     Number of k-points >= 100: set verbosity='high' to print the bands.

     the Fermi energy is     6.4673 ev
     (compare with:     6.1788 eV, computed in scf)

     Writing all to output data dir ./tmp/si.save/ :
     XML data file, pseudopotentials, collected wavefunctions

     init_run     :      0.27s CPU      0.33s WALL (       1 calls)
     electrons    :    211.44s CPU    212.99s WALL (       1 calls)

     Called by init_run:
     wfcinit      :      0.00s CPU      0.00s WALL (       1 calls)
     potinit      :      0.02s CPU      0.03s WALL (       1 calls)
     hinit0       :      0.08s CPU      0.11s WALL (       1 calls)

     Called by electrons:
     c_bands      :    211.38s CPU    212.92s WALL (       1 calls)
     v_of_rho     :      0.02s CPU      0.02s WALL (       1 calls)

     Called by c_bands:
     init_us_2    :      0.28s CPU      0.31s WALL (     145 calls)
     cegterg      :    202.00s CPU    202.16s WALL (     327 calls)

     Called by *egterg:
     cdiaghg      :      0.64s CPU      0.61s WALL (    5476 calls)
     h_psi        :    168.89s CPU    172.02s WALL (    5803 calls)
     g_psi        :      0.88s CPU      0.85s WALL (    5331 calls)

     Called by h_psi:
     h_psi:calbec :     18.32s CPU     18.96s WALL (    5803 calls)
     vloc_psi     :    136.50s CPU    136.75s WALL (    5803 calls)
     add_vuspsi   :     13.60s CPU     15.87s WALL (    5803 calls)

     General routines
     calbec       :     18.29s CPU     18.95s WALL (    5803 calls)
     fft          :      0.01s CPU      0.01s WALL (       4 calls)
     fftw         :    119.43s CPU    120.36s WALL (   69332 calls)
     davcio       :      0.26s CPU      0.80s WALL (     290 calls)


     PWSCF        :   3m32.28s CPU   3m34.95s WALL


   This run was terminated on:  12:43:13  16May2025            

=------------------------------------------------------------------------------=
   JOB DONE.
=------------------------------------------------------------------------------=
