 CRYSTAL
 PRIMVEC
   -2.702970850    0.000000000    2.702970850
    0.000000000    2.702970850    2.702970850
   -2.702970850    2.702970850    0.000000000
 PRIMCOORD
           2           1
Si        0.000000000    0.000000000    0.000000000
Si       -1.351485425    1.351485425    1.351485425
BEGIN_BLOCK_DATAGRID_3D
3D_PWSCF
DATAGRID_3D_UNKNOWN
          32          32          32
  0.000000  0.000000  0.000000
 -2.702971  0.000000  2.702971
  0.000000  2.702971  2.702971
 -2.702971  2.702971  0.000000
  0.126332E-02  0.374801E-02  0.116654E-01  0.248913E-01  0.406645E-01  0.540934E-01
  0.612349E-01  0.616080E-01  0.570836E-01  0.504173E-01  0.437560E-01  0.379241E-01
  0.332069E-01  0.296129E-01  0.270887E-01  0.255950E-01  0.250953E-01  0.255950E-01
  0.270887E-01  0.296129E-01  0.332069E-01  0.379241E-01  0.437560E-01  0.504173E-01
  0.570836E-01  0.616080E-01  0.612349E-01  0.540934E-01  0.406645E-01  0.248913E-01
  0.116654E-01  0.374801E-02  0.374801E-02  0.977422E-02  0.217383E-01  0.376816E-01
  0.532666E-01  0.637748E-01  0.672442E-01  0.647783E-01  0.588308E-01  0.519929E-01
  0.456489E-01  0.402725E-01  0.360103E-01  0.328247E-01  0.307097E-01  0.296470E-01
  0.296470E-01  0.307097E-01  0.328247E-01  0.360103E-01  0.402725E-01  0.456489E-01
  0.519929E-01  0.588308E-01  0.647783E-01  0.672442E-01  0.637748E-01  0.532666E-01
  0.376816E-01  0.217383E-01  0.977422E-02  0.374801E-02  0.116654E-01  0.217383E-01
  0.366683E-01  0.527106E-01  0.651943E-01  0.712050E-01  0.709300E-01  0.662869E-01
  0.598106E-01  0.533507E-01  0.476118E-01  0.428584E-01  0.391117E-01  0.363874E-01
  0.347257E-01  0.341611E-01  0.347257E-01  0.363874E-01  0.391117E-01  0.428584E-01
  0.476118E-01  0.533507E-01  0.598106E-01  0.662869E-01  0.709300E-01  0.712050E-01
  0.651943E-01  0.527106E-01  0.366683E-01  0.217383E-01  0.116654E-01  0.818819E-02
  0.248913E-01  0.376816E-01  0.527106E-01  0.656539E-01  0.732589E-01  0.749130E-01
  0.718833E-01  0.663257E-01  0.602498E-01  0.545752E-01  0.496404E-01  0.455431E-01
  0.423199E-01  0.400761E-01  0.389108E-01  0.389108E-01  0.400761E-01  0.423199E-01
  0.455431E-01  0.496404E-01  0.545752E-01  0.602498E-01  0.663257E-01  0.718833E-01
  0.749130E-01  0.732589E-01  0.656539E-01  0.527106E-01  0.376816E-01  0.248913E-01
  0.176881E-01  0.176881E-01  0.406645E-01  0.532666E-01  0.651943E-01  0.732589E-01
  0.762939E-01  0.748871E-01  0.706662E-01  0.654915E-01  0.603734E-01  0.556810E-01
  0.515628E-01  0.480686E-01  0.453468E-01  0.435840E-01  0.429699E-01  0.435840E-01
  0.453468E-01  0.480686E-01  0.515628E-01  0.556810E-01  0.603734E-01  0.654915E-01
  0.706662E-01  0.748871E-01  0.762939E-01  0.732589E-01  0.651943E-01  0.532666E-01
  0.406645E-01  0.312068E-01  0.277168E-01  0.312068E-01  0.540934E-01  0.637748E-01
  0.712050E-01  0.749130E-01  0.748871E-01  0.721916E-01  0.683310E-01  0.642354E-01
  0.602498E-01  0.565265E-01  0.530926E-01  0.500932E-01  0.477893E-01  0.465184E-01
  0.465184E-01  0.477893E-01  0.500932E-01  0.530926E-01  0.565265E-01  0.602498E-01
  0.642354E-01  0.683310E-01  0.721916E-01  0.748871E-01  0.749130E-01  0.712050E-01
  0.637748E-01  0.540934E-01  0.449920E-01  0.394890E-01  0.394890E-01  0.449920E-01
  0.612349E-01  0.672442E-01  0.709300E-01  0.718833E-01  0.706662E-01  0.683310E-01
  0.655929E-01  0.627178E-01  0.598106E-01  0.568326E-01  0.538523E-01  0.511560E-01
  0.492138E-01  0.485072E-01  0.492138E-01  0.511560E-01  0.538523E-01  0.568326E-01
  0.598106E-01  0.627178E-01  0.655929E-01  0.683310E-01  0.706662E-01  0.718833E-01
  0.709300E-01  0.672442E-01  0.612349E-01  0.544057E-01  0.489668E-01  0.468870E-01
  0.489668E-01  0.544057E-01  0.616080E-01  0.647783E-01  0.662869E-01  0.663257E-01
  0.654915E-01  0.642354E-01  0.627178E-01  0.609606E-01  0.588308E-01  0.562568E-01
  0.534526E-01  0.509515E-01  0.494641E-01  0.494641E-01  0.509515E-01  0.534526E-01
  0.562568E-01  0.588308E-01  0.609606E-01  0.627178E-01  0.642354E-01  0.654915E-01
  0.663257E-01  0.662869E-01  0.647783E-01  0.616080E-01  0.573178E-01  0.531585E-01
  0.505871E-01  0.505871E-01  0.531585E-01  0.573178E-01  0.570836E-01  0.588308E-01
  0.598106E-01  0.602498E-01  0.603734E-01  0.602498E-01  0.598106E-01  0.588308E-01
  0.570836E-01  0.546014E-01  0.518565E-01  0.496815E-01  0.488516E-01  0.496815E-01
  0.518565E-01  0.546014E-01  0.570836E-01  0.588308E-01  0.598106E-01  0.602498E-01
  0.603734E-01  0.602498E-01  0.598106E-01  0.588308E-01  0.570836E-01  0.546014E-01
  0.518565E-01  0.496815E-01  0.488516E-01  0.496815E-01  0.518565E-01  0.546014E-01
  0.504173E-01  0.519929E-01  0.533507E-01  0.545752E-01  0.556810E-01  0.565265E-01
  0.568326E-01  0.562568E-01  0.546014E-01  0.521266E-01  0.496244E-01  0.480439E-01
  0.480439E-01  0.496244E-01  0.521266E-01  0.546014E-01  0.562568E-01  0.568326E-01
  0.565265E-01  0.556810E-01  0.545752E-01  0.533507E-01  0.519929E-01  0.504173E-01
  0.486186E-01  0.467245E-01  0.450654E-01  0.440853E-01  0.440853E-01  0.450654E-01
  0.467245E-01  0.486186E-01  0.437560E-01  0.456489E-01  0.476118E-01  0.496404E-01
  0.515628E-01  0.530926E-01  0.538523E-01  0.534526E-01  0.518565E-01  0.496244E-01
  0.476890E-01  0.469214E-01  0.476890E-01  0.496244E-01  0.518565E-01  0.534526E-01
  0.538523E-01  0.530926E-01  0.515628E-01  0.496404E-01  0.476118E-01  0.456489E-01
  0.437560E-01  0.419201E-01  0.402073E-01  0.387427E-01  0.377335E-01  0.373736E-01
  0.377335E-01  0.387427E-01  0.402073E-01  0.419201E-01  0.379241E-01  0.402725E-01
  0.428584E-01  0.455431E-01  0.480686E-01  0.500932E-01  0.511560E-01  0.509515E-01
  0.496815E-01  0.480439E-01  0.469214E-01  0.469214E-01  0.480439E-01  0.496815E-01
  0.509515E-01  0.511560E-01  0.500932E-01  0.480686E-01  0.455431E-01  0.428584E-01
  0.402725E-01  0.379241E-01  0.358253E-01  0.339981E-01  0.324903E-01  0.313864E-01
  0.308020E-01  0.308020E-01  0.313864E-01  0.324903E-01  0.339981E-01  0.358253E-01
  0.332069E-01  0.360103E-01  0.391117E-01  0.423199E-01  0.453468E-01  0.477893E-01
  0.492138E-01  0.494641E-01  0.488516E-01  0.480439E-01  0.476890E-01  0.480439E-01
  0.488516E-01  0.494641E-01  0.492138E-01  0.477893E-01  0.453468E-01  0.423199E-01
  0.391117E-01  0.360103E-01  0.332069E-01  0.307648E-01  0.287042E-01  0.270462E-01
  0.258064E-01  0.250339E-01  0.247726E-01  0.250339E-01  0.258064E-01  0.270462E-01
  0.287042E-01  0.307648E-01  0.296129E-01  0.328247E-01  0.363874E-01  0.400761E-01
  0.435840E-01  0.465184E-01  0.485072E-01  0.494641E-01  0.496815E-01  0.496244E-01
  0.496244E-01  0.496815E-01  0.494641E-01  0.485072E-01  0.465184E-01  0.435840E-01
  0.400761E-01  0.363874E-01  0.328247E-01  0.296129E-01  0.268421E-01  0.245211E-01
  0.226602E-01  0.212506E-01  0.202967E-01  0.198160E-01  0.198160E-01  0.202967E-01
  0.212506E-01  0.226602E-01  0.245211E-01  0.268421E-01  0.270887E-01  0.307097E-01
  0.347257E-01  0.389108E-01  0.429699E-01  0.465184E-01  0.492138E-01  0.509515E-01
  0.518565E-01  0.521266E-01  0.518565E-01  0.509515E-01  0.492138E-01  0.465184E-01
  0.429699E-01  0.389108E-01  0.347257E-01  0.307097E-01  0.270887E-01  0.239812E-01
  0.213966E-01  0.193254E-01  0.177399E-01  0.166142E-01  0.159421E-01  0.157174E-01
  0.159421E-01  0.166142E-01  0.177399E-01  0.193254E-01  0.213966E-01  0.239812E-01
  0.255950E-01  0.296470E-01  0.341611E-01  0.389108E-01  0.435840E-01  0.477893E-01
  0.511560E-01  0.534526E-01  0.546014E-01  0.546014E-01  0.534526E-01  0.511560E-01
  0.477893E-01  0.435840E-01  0.389108E-01  0.341611E-01  0.296470E-01  0.255950E-01
  0.221247E-01  0.192460E-01  0.169389E-01  0.151631E-01  0.138652E-01  0.130191E-01
  0.126004E-01  0.126004E-01  0.130191E-01  0.138652E-01  0.151631E-01  0.169389E-01
  0.192460E-01  0.221247E-01  0.250953E-01  0.296470E-01  0.347257E-01  0.400761E-01
  0.453468E-01  0.500932E-01  0.538523E-01  0.562568E-01  0.570836E-01  0.562568E-01
  0.538523E-01  0.500932E-01  0.453468E-01  0.400761E-01  0.347257E-01  0.296470E-01
  0.250953E-01  0.212068E-01  0.179915E-01  0.154125E-01  0.134185E-01  0.119369E-01
  0.109167E-01  0.103211E-01  0.101235E-01  0.103211E-01  0.109167E-01  0.119369E-01
  0.134185E-01  0.154125E-01  0.179915E-01  0.212068E-01  0.255950E-01  0.307097E-01
  0.363874E-01  0.423199E-01  0.480686E-01  0.530926E-01  0.568326E-01  0.588308E-01
  0.588308E-01  0.568326E-01  0.530926E-01  0.480686E-01  0.423199E-01  0.363874E-01
  0.307097E-01  0.255950E-01  0.212068E-01  0.175760E-01  0.146658E-01  0.124082E-01
  0.107138E-01  0.950986E-02  0.874163E-02  0.836480E-02  0.836480E-02  0.874163E-02
  0.950986E-02  0.107138E-01  0.124082E-01  0.146658E-01  0.175760E-01  0.212068E-01
  0.270887E-01  0.328247E-01  0.391117E-01  0.455431E-01  0.515628E-01  0.565265E-01
  0.598106E-01  0.609606E-01  0.598106E-01  0.565265E-01  0.515628E-01  0.455431E-01
  0.391117E-01  0.328247E-01  0.270887E-01  0.221247E-01  0.179915E-01  0.146658E-01
  0.120779E-01  0.101215E-01  0.870174E-02  0.774671E-02  0.719565E-02  0.701461E-02
  0.719565E-02  0.774671E-02  0.870174E-02  0.101215E-01  0.120779E-01  0.146658E-01
  0.179915E-01  0.221247E-01  0.296129E-01  0.360103E-01  0.428584E-01  0.496404E-01
  0.556810E-01  0.602498E-01  0.627178E-01  0.627178E-01  0.602498E-01  0.556810E-01
  0.496404E-01  0.428584E-01  0.360103E-01  0.296129E-01  0.239812E-01  0.192460E-01
  0.154125E-01  0.124082E-01  0.101215E-01  0.844131E-02  0.727024E-02  0.653051E-02
  0.617407E-02  0.617407E-02  0.653051E-02  0.727024E-02  0.844131E-02  0.101215E-01
  0.124082E-01  0.154125E-01  0.192460E-01  0.239812E-01  0.332069E-01  0.402725E-01
  0.476118E-01  0.545752E-01  0.603734E-01  0.642354E-01  0.655929E-01  0.642354E-01
  0.603734E-01  0.545752E-01  0.476118E-01  0.402725E-01  0.332069E-01  0.268421E-01
  0.213966E-01  0.169389E-01  0.134185E-01  0.107138E-01  0.870174E-02  0.727024E-02
  0.631460E-02  0.576863E-02  0.559325E-02  0.576863E-02  0.631460E-02  0.727024E-02
  0.870174E-02  0.107138E-01  0.134185E-01  0.169389E-01  0.213966E-01  0.268421E-01
  0.379241E-01  0.456489E-01  0.533507E-01  0.602498E-01  0.654915E-01  0.683310E-01
  0.683310E-01  0.654915E-01  0.602498E-01  0.533507E-01  0.456489E-01  0.379241E-01
  0.307648E-01  0.245211E-01  0.193254E-01  0.151631E-01  0.119369E-01  0.950986E-02
  0.774671E-02  0.653051E-02  0.576863E-02  0.540338E-02  0.540338E-02  0.576863E-02
  0.653051E-02  0.774671E-02  0.950986E-02  0.119369E-01  0.151631E-01  0.193254E-01
  0.245211E-01  0.307648E-01  0.437560E-01  0.519929E-01  0.598106E-01  0.663257E-01
  0.706662E-01  0.721916E-01  0.706662E-01  0.663257E-01  0.598106E-01  0.519929E-01
  0.437560E-01  0.358253E-01  0.287042E-01  0.226602E-01  0.177399E-01  0.138652E-01
  0.109167E-01  0.874163E-02  0.719565E-02  0.617407E-02  0.559325E-02  0.540338E-02
  0.559325E-02  0.617407E-02  0.719565E-02  0.874163E-02  0.109167E-01  0.138652E-01
  0.177399E-01  0.226602E-01  0.287042E-01  0.358253E-01  0.504173E-01  0.588308E-01
  0.662869E-01  0.718833E-01  0.748871E-01  0.748871E-01  0.718833E-01  0.662869E-01
  0.588308E-01  0.504173E-01  0.419201E-01  0.339981E-01  0.270462E-01  0.212506E-01
  0.166142E-01  0.130191E-01  0.103211E-01  0.836480E-02  0.701461E-02  0.617407E-02
  0.576863E-02  0.576863E-02  0.617407E-02  0.701461E-02  0.836480E-02  0.103211E-01
  0.130191E-01  0.166142E-01  0.212506E-01  0.270462E-01  0.339981E-01  0.419201E-01
  0.570836E-01  0.647783E-01  0.709300E-01  0.749130E-01  0.762939E-01  0.749130E-01
  0.709300E-01  0.647783E-01  0.570836E-01  0.486186E-01  0.402073E-01  0.324903E-01
  0.258064E-01  0.202967E-01  0.159421E-01  0.126004E-01  0.101235E-01  0.836480E-02
  0.719565E-02  0.653051E-02  0.631460E-02  0.653051E-02  0.719565E-02  0.836480E-02
  0.101235E-01  0.126004E-01  0.159421E-01  0.202967E-01  0.258064E-01  0.324903E-01
  0.402073E-01  0.486186E-01  0.616080E-01  0.672442E-01  0.712050E-01  0.732589E-01
  0.732589E-01  0.712050E-01  0.672442E-01  0.616080E-01  0.546014E-01  0.467245E-01
  0.387427E-01  0.313864E-01  0.250339E-01  0.198160E-01  0.157174E-01  0.126004E-01
  0.103211E-01  0.874163E-02  0.774671E-02  0.727024E-02  0.727024E-02  0.774671E-02
  0.874163E-02  0.103211E-01  0.126004E-01  0.157174E-01  0.198160E-01  0.250339E-01
  0.313864E-01  0.387427E-01  0.467245E-01  0.546014E-01  0.612349E-01  0.637748E-01
  0.651943E-01  0.656539E-01  0.651943E-01  0.637748E-01  0.612349E-01  0.573178E-01
  0.518565E-01  0.450654E-01  0.377335E-01  0.308020E-01  0.247726E-01  0.198160E-01
  0.159421E-01  0.130191E-01  0.109167E-01  0.950986E-02  0.870174E-02  0.844131E-02
  0.870174E-02  0.950986E-02  0.109167E-01  0.130191E-01  0.159421E-01  0.198160E-01
  0.247726E-01  0.308020E-01  0.377335E-01  0.450654E-01  0.518565E-01  0.573178E-01
  0.540934E-01  0.532666E-01  0.527106E-01  0.527106E-01  0.532666E-01  0.540934E-01
  0.544057E-01  0.531585E-01  0.496815E-01  0.440853E-01  0.373736E-01  0.308020E-01
  0.250339E-01  0.202967E-01  0.166142E-01  0.138652E-01  0.119369E-01  0.107138E-01
  0.101215E-01  0.101215E-01  0.107138E-01  0.119369E-01  0.138652E-01  0.166142E-01
  0.202967E-01  0.250339E-01  0.308020E-01  0.373736E-01  0.440853E-01  0.496815E-01
  0.531585E-01  0.544057E-01  0.406645E-01  0.376816E-01  0.366683E-01  0.376816E-01
  0.406645E-01  0.449920E-01  0.489668E-01  0.505871E-01  0.488516E-01  0.440853E-01
  0.377335E-01  0.313864E-01  0.258064E-01  0.212506E-01  0.177399E-01  0.151631E-01
  0.134185E-01  0.124082E-01  0.120779E-01  0.124082E-01  0.134185E-01  0.151631E-01
  0.177399E-01  0.212506E-01  0.258064E-01  0.313864E-01  0.377335E-01  0.440853E-01
  0.488516E-01  0.505871E-01  0.489668E-01  0.449920E-01  0.248913E-01  0.217383E-01
  0.217383E-01  0.248913E-01  0.312068E-01  0.394890E-01  0.468870E-01  0.505871E-01
  0.496815E-01  0.450654E-01  0.387427E-01  0.324903E-01  0.270462E-01  0.226602E-01
  0.193254E-01  0.169389E-01  0.154125E-01  0.146658E-01  0.146658E-01  0.154125E-01
  0.169389E-01  0.193254E-01  0.226602E-01  0.270462E-01  0.324903E-01  0.387427E-01
  0.450654E-01  0.496815E-01  0.505871E-01  0.468870E-01  0.394890E-01  0.312068E-01
  0.116654E-01  0.977422E-02  0.116654E-01  0.176881E-01  0.277168E-01  0.394890E-01
  0.489668E-01  0.531585E-01  0.518565E-01  0.467245E-01  0.402073E-01  0.339981E-01
  0.287042E-01  0.245211E-01  0.213966E-01  0.192460E-01  0.179915E-01  0.175760E-01
  0.179915E-01  0.192460E-01  0.213966E-01  0.245211E-01  0.287042E-01  0.339981E-01
  0.402073E-01  0.467245E-01  0.518565E-01  0.531585E-01  0.489668E-01  0.394890E-01
  0.277168E-01  0.176881E-01  0.374801E-02  0.374801E-02  0.818819E-02  0.176881E-01
  0.312068E-01  0.449920E-01  0.544057E-01  0.573178E-01  0.546014E-01  0.486186E-01
  0.419201E-01  0.358253E-01  0.307648E-01  0.268421E-01  0.239812E-01  0.221247E-01
  0.212068E-01  0.212068E-01  0.221247E-01  0.239812E-01  0.268421E-01  0.307648E-01
  0.358253E-01  0.419201E-01  0.486186E-01  0.546014E-01  0.573178E-01  0.544057E-01
  0.449920E-01  0.312068E-01  0.176881E-01  0.818819E-02  0.374801E-02  0.977422E-02
  0.217383E-01  0.376816E-01  0.532666E-01  0.637748E-01  0.672442E-01  0.647783E-01
  0.588308E-01  0.519929E-01  0.456489E-01  0.402725E-01  0.360103E-01  0.328247E-01
  0.307097E-01  0.296470E-01  0.296470E-01  0.307097E-01  0.328247E-01  0.360103E-01
  0.402725E-01  0.456489E-01  0.519929E-01  0.588308E-01  0.647783E-01  0.672442E-01
  0.637748E-01  0.532666E-01  0.376816E-01  0.217383E-01  0.977422E-02  0.374801E-02
  0.977422E-02  0.199707E-01  0.352979E-01  0.520306E-01  0.653184E-01  0.719586E-01
  0.720344E-01  0.674992E-01  0.609606E-01  0.543870E-01  0.485343E-01  0.436797E-01
  0.398511E-01  0.370644E-01  0.353646E-01  0.347868E-01  0.353646E-01  0.370644E-01
  0.398511E-01  0.436797E-01  0.485343E-01  0.543870E-01  0.609606E-01  0.674992E-01
  0.720344E-01  0.719586E-01  0.653184E-01  0.520306E-01  0.352979E-01  0.199707E-01
  0.977422E-02  0.628836E-02  0.217383E-01  0.352979E-01  0.515820E-01  0.660273E-01
  0.749057E-01  0.773381E-01  0.746230E-01  0.690107E-01  0.627178E-01  0.568062E-01
  0.516437E-01  0.473505E-01  0.439655E-01  0.416057E-01  0.403788E-01  0.403788E-01
  0.416057E-01  0.439655E-01  0.473505E-01  0.516437E-01  0.568062E-01  0.627178E-01
  0.690107E-01  0.746230E-01  0.773381E-01  0.749057E-01  0.660273E-01  0.515820E-01
  0.352979E-01  0.217383E-01  0.142146E-01  0.142146E-01  0.376816E-01  0.520306E-01
  0.660273E-01  0.759124E-01  0.801492E-01  0.793159E-01  0.751290E-01  0.696880E-01
  0.642354E-01  0.591973E-01  0.547586E-01  0.509766E-01  0.480123E-01  0.460848E-01
  0.454097E-01  0.460848E-01  0.480123E-01  0.509766E-01  0.547586E-01  0.591973E-01
  0.642354E-01  0.696880E-01  0.751290E-01  0.793159E-01  0.801492E-01  0.759124E-01
  0.660273E-01  0.520306E-01  0.376816E-01  0.271321E-01  0.232796E-01  0.271321E-01
  0.532666E-01  0.653184E-01  0.749057E-01  0.801492E-01  0.809555E-01  0.784411E-01
  0.743477E-01  0.698872E-01  0.654915E-01  0.613479E-01  0.574891E-01  0.540654E-01
  0.514071E-01  0.499277E-01  0.499277E-01  0.514071E-01  0.540654E-01  0.574891E-01
  0.613479E-01  0.654915E-01  0.698872E-01  0.743477E-01  0.784411E-01  0.809555E-01
  0.801492E-01  0.749057E-01  0.653184E-01  0.532666E-01  0.422052E-01  0.356198E-01
  0.356198E-01  0.422052E-01  0.637748E-01  0.719586E-01  0.773381E-01  0.793159E-01
  0.784411E-01  0.759886E-01  0.729511E-01  0.696880E-01  0.663257E-01  0.628047E-01
  0.591781E-01  0.558364E-01  0.534066E-01  0.525165E-01  0.534066E-01  0.558364E-01
  0.591781E-01  0.628047E-01  0.663257E-01  0.696880E-01  0.729511E-01  0.759886E-01
  0.784411E-01  0.793159E-01  0.773381E-01  0.719586E-01  0.637748E-01  0.547184E-01
  0.476120E-01  0.449179E-01  0.476120E-01  0.547184E-01  0.672442E-01  0.720344E-01
  0.746230E-01  0.751290E-01  0.743477E-01  0.729511E-01  0.711640E-01  0.690107E-01
  0.662869E-01  0.628574E-01  0.590568E-01  0.556542E-01  0.536272E-01  0.536272E-01
  0.556542E-01  0.590568E-01  0.628574E-01  0.662869E-01  0.690107E-01  0.711640E-01
  0.729511E-01  0.743477E-01  0.751290E-01  0.746230E-01  0.720344E-01  0.672442E-01
  0.610770E-01  0.552158E-01  0.516275E-01  0.516275E-01  0.552158E-01  0.610770E-01
  0.647783E-01  0.674992E-01  0.690107E-01  0.696880E-01  0.698872E-01  0.696880E-01
  0.690107E-01  0.674992E-01  0.647783E-01  0.609748E-01  0.568471E-01  0.536100E-01
  0.523836E-01  0.536100E-01  0.568471E-01  0.609748E-01  0.647783E-01  0.674992E-01
  0.690107E-01  0.696880E-01  0.698872E-01  0.696880E-01  0.690107E-01  0.674992E-01
  0.647783E-01  0.609748E-01  0.568471E-01  0.536100E-01  0.523836E-01  0.536100E-01
  0.568471E-01  0.609748E-01  0.588308E-01  0.609606E-01  0.627178E-01  0.642354E-01
  0.654915E-01  0.663257E-01  0.662869E-01  0.647783E-01  0.616080E-01  0.573178E-01
  0.531585E-01  0.505871E-01  0.505871E-01  0.531585E-01  0.573178E-01  0.616080E-01
  0.647783E-01  0.662869E-01  0.663257E-01  0.654915E-01  0.642354E-01  0.627178E-01
  0.609606E-01  0.588308E-01  0.562568E-01  0.534526E-01  0.509515E-01  0.494641E-01
  0.494641E-01  0.509515E-01  0.534526E-01  0.562568E-01  0.519929E-01  0.543870E-01
  0.568062E-01  0.591973E-01  0.613479E-01  0.628047E-01  0.628574E-01  0.609748E-01
  0.573178E-01  0.529202E-01  0.493291E-01  0.479389E-01  0.493291E-01  0.529202E-01
  0.573178E-01  0.609748E-01  0.628574E-01  0.628047E-01  0.613479E-01  0.591973E-01
  0.568062E-01  0.543870E-01  0.519929E-01  0.495997E-01  0.472900E-01  0.452561E-01
  0.438175E-01  0.432995E-01  0.438175E-01  0.452561E-01  0.472900E-01  0.495997E-01
  0.456489E-01  0.485343E-01  0.516437E-01  0.547586E-01  0.574891E-01  0.591781E-01
  0.590568E-01  0.568471E-01  0.531585E-01  0.493291E-01  0.468937E-01  0.468937E-01
  0.493291E-01  0.531585E-01  0.568471E-01  0.590568E-01  0.591781E-01  0.574891E-01
  0.547586E-01  0.516437E-01  0.485343E-01  0.456489E-01  0.430217E-01  0.406726E-01
  0.386991E-01  0.372274E-01  0.364381E-01  0.364381E-01  0.372274E-01  0.386991E-01
  0.406726E-01  0.430217E-01  0.402725E-01  0.436797E-01  0.473505E-01  0.509766E-01
  0.540654E-01  0.558364E-01  0.556542E-01  0.536100E-01  0.505871E-01  0.479389E-01
  0.468937E-01  0.479389E-01  0.505871E-01  0.536100E-01  0.556542E-01  0.558364E-01
  0.540654E-01  0.509766E-01  0.473505E-01  0.436797E-01  0.402725E-01  0.372822E-01
  0.347217E-01  0.326262E-01  0.310392E-01  0.300345E-01  0.296942E-01  0.300345E-01
  0.310392E-01  0.326262E-01  0.347217E-01  0.372822E-01  0.360103E-01  0.398511E-01
  0.439655E-01  0.480123E-01  0.514071E-01  0.534066E-01  0.536272E-01  0.523836E-01
  0.505871E-01  0.493291E-01  0.493291E-01  0.505871E-01  0.523836E-01  0.536272E-01
  0.534066E-01  0.514071E-01  0.480123E-01  0.439655E-01  0.398511E-01  0.360103E-01
  0.326469E-01  0.298093E-01  0.275081E-01  0.257564E-01  0.245578E-01  0.239514E-01
  0.239514E-01  0.245578E-01  0.257564E-01  0.275081E-01  0.298093E-01  0.326469E-01
  0.328247E-01  0.370644E-01  0.416057E-01  0.460848E-01  0.499277E-01  0.525165E-01
  0.536272E-01  0.536100E-01  0.531585E-01  0.529202E-01  0.531585E-01  0.536100E-01
  0.536272E-01  0.525165E-01  0.499277E-01  0.460848E-01  0.416057E-01  0.370644E-01
  0.328247E-01  0.291158E-01  0.260073E-01  0.234861E-01  0.215458E-01  0.201609E-01
  0.193269E-01  0.190508E-01  0.193269E-01  0.201609E-01  0.215458E-01  0.234861E-01
  0.260073E-01  0.291158E-01  0.307097E-01  0.353646E-01  0.403788E-01  0.454097E-01
  0.499277E-01  0.534066E-01  0.556542E-01  0.568471E-01  0.573178E-01  0.573178E-01
  0.568471E-01  0.556542E-01  0.534066E-01  0.499277E-01  0.454097E-01  0.403788E-01
  0.353646E-01  0.307097E-01  0.266373E-01  0.232372E-01  0.204872E-01  0.183549E-01
  0.167935E-01  0.157657E-01  0.152575E-01  0.152575E-01  0.157657E-01  0.167935E-01
  0.183549E-01  0.204872E-01  0.232372E-01  0.266373E-01  0.296470E-01  0.347868E-01
  0.403788E-01  0.460848E-01  0.514071E-01  0.558364E-01  0.590568E-01  0.609748E-01
  0.616080E-01  0.609748E-01  0.590568E-01  0.558364E-01  0.514071E-01  0.460848E-01
  0.403788E-01  0.347868E-01  0.296470E-01  0.251706E-01  0.214409E-01  0.184271E-01
  0.160800E-01  0.143334E-01  0.131233E-01  0.124147E-01  0.121813E-01  0.124147E-01
  0.131233E-01  0.143334E-01  0.160800E-01  0.184271E-01  0.214409E-01  0.251706E-01
  0.296470E-01  0.353646E-01  0.416057E-01  0.480123E-01  0.540654E-01  0.591781E-01
  0.628574E-01  0.647783E-01  0.647783E-01  0.628574E-01  0.591781E-01  0.540654E-01
  0.480123E-01  0.416057E-01  0.353646E-01  0.296470E-01  0.246801E-01  0.205531E-01
  0.172251E-01  0.146256E-01  0.126728E-01  0.112776E-01  0.103828E-01  0.994525E-02
  0.994525E-02  0.103828E-01  0.112776E-01  0.126728E-01  0.146256E-01  0.172251E-01
  0.205531E-01  0.246801E-01  0.307097E-01  0.370644E-01  0.439655E-01  0.509766E-01
  0.574891E-01  0.628047E-01  0.662869E-01  0.674992E-01  0.662869E-01  0.628047E-01
  0.574891E-01  0.509766E-01  0.439655E-01  0.370644E-01  0.307097E-01  0.251706E-01
  0.205531E-01  0.168280E-01  0.139149E-01  0.117114E-01  0.101076E-01  0.902476E-02
  0.839976E-02  0.819323E-02  0.839976E-02  0.902476E-02  0.101076E-01  0.117114E-01
  0.139149E-01  0.168280E-01  0.205531E-01  0.251706E-01  0.328247E-01  0.398511E-01
  0.473505E-01  0.547586E-01  0.613479E-01  0.663257E-01  0.690107E-01  0.690107E-01
  0.663257E-01  0.613479E-01  0.547586E-01  0.473505E-01  0.398511E-01  0.328247E-01
  0.266373E-01  0.214409E-01  0.172251E-01  0.139149E-01  0.113984E-01  0.954349E-02
  0.824682E-02  0.743041E-02  0.703376E-02  0.703376E-02  0.743041E-02  0.824682E-02
  0.954349E-02  0.113984E-01  0.139149E-01  0.172251E-01  0.214409E-01  0.266373E-01
  0.360103E-01  0.436797E-01  0.516437E-01  0.591973E-01  0.654915E-01  0.696880E-01
  0.711640E-01  0.696880E-01  0.654915E-01  0.591973E-01  0.516437E-01  0.436797E-01
  0.360103E-01  0.291158E-01  0.232372E-01  0.184271E-01  0.146256E-01  0.117114E-01
  0.954349E-02  0.799636E-02  0.696511E-02  0.637553E-02  0.618454E-02  0.637553E-02
  0.696511E-02  0.799636E-02  0.954349E-02  0.117114E-01  0.146256E-01  0.184271E-01
  0.232372E-01  0.291158E-01  0.402725E-01  0.485343E-01  0.568062E-01  0.642354E-01
  0.698872E-01  0.729511E-01  0.729511E-01  0.698872E-01  0.642354E-01  0.568062E-01
  0.485343E-01  0.402725E-01  0.326469E-01  0.260073E-01  0.204872E-01  0.160800E-01
  0.126728E-01  0.101076E-01  0.824682E-02  0.696511E-02  0.616022E-02  0.577559E-02
  0.577559E-02  0.616022E-02  0.696511E-02  0.824682E-02  0.101076E-01  0.126728E-01
  0.160800E-01  0.204872E-01  0.260073E-01  0.326469E-01  0.456489E-01  0.543870E-01
  0.627178E-01  0.696880E-01  0.743477E-01  0.759886E-01  0.743477E-01  0.696880E-01
  0.627178E-01  0.543870E-01  0.456489E-01  0.372822E-01  0.298093E-01  0.234861E-01
  0.183549E-01  0.143334E-01  0.112776E-01  0.902476E-02  0.743041E-02  0.637553E-02
  0.577559E-02  0.558177E-02  0.577559E-02  0.637553E-02  0.743041E-02  0.902476E-02
  0.112776E-01  0.143334E-01  0.183549E-01  0.234861E-01  0.298093E-01  0.372822E-01
  0.519929E-01  0.609606E-01  0.690107E-01  0.751290E-01  0.784411E-01  0.784411E-01
  0.751290E-01  0.690107E-01  0.609606E-01  0.519929E-01  0.430217E-01  0.347217E-01
  0.275081E-01  0.215458E-01  0.167935E-01  0.131233E-01  0.103828E-01  0.839976E-02
  0.703376E-02  0.618454E-02  0.577559E-02  0.577559E-02  0.618454E-02  0.703376E-02
  0.839976E-02  0.103828E-01  0.131233E-01  0.167935E-01  0.215458E-01  0.275081E-01
  0.347217E-01  0.430217E-01  0.588308E-01  0.674992E-01  0.746230E-01  0.793159E-01
  0.809555E-01  0.793159E-01  0.746230E-01  0.674992E-01  0.588308E-01  0.495997E-01
  0.406726E-01  0.326262E-01  0.257564E-01  0.201609E-01  0.157657E-01  0.124147E-01
  0.994525E-02  0.819323E-02  0.703376E-02  0.637553E-02  0.616022E-02  0.637553E-02
  0.703376E-02  0.819323E-02  0.994525E-02  0.124147E-01  0.157657E-01  0.201609E-01
  0.257564E-01  0.326262E-01  0.406726E-01  0.495997E-01  0.647783E-01  0.720344E-01
  0.773381E-01  0.801492E-01  0.801492E-01  0.773381E-01  0.720344E-01  0.647783E-01
  0.562568E-01  0.472900E-01  0.386991E-01  0.310392E-01  0.245578E-01  0.193269E-01
  0.152575E-01  0.121813E-01  0.994525E-02  0.839976E-02  0.743041E-02  0.696511E-02
  0.696511E-02  0.743041E-02  0.839976E-02  0.994525E-02  0.121813E-01  0.152575E-01
  0.193269E-01  0.245578E-01  0.310392E-01  0.386991E-01  0.472900E-01  0.562568E-01
  0.672442E-01  0.719586E-01  0.749057E-01  0.759124E-01  0.749057E-01  0.719586E-01
  0.672442E-01  0.609748E-01  0.534526E-01  0.452561E-01  0.372274E-01  0.300345E-01
  0.239514E-01  0.190508E-01  0.152575E-01  0.124147E-01  0.103828E-01  0.902476E-02
  0.824682E-02  0.799636E-02  0.824682E-02  0.902476E-02  0.103828E-01  0.124147E-01
  0.152575E-01  0.190508E-01  0.239514E-01  0.300345E-01  0.372274E-01  0.452561E-01
  0.534526E-01  0.609748E-01  0.637748E-01  0.653184E-01  0.660273E-01  0.660273E-01
  0.653184E-01  0.637748E-01  0.610770E-01  0.568471E-01  0.509515E-01  0.438175E-01
  0.364381E-01  0.296942E-01  0.239514E-01  0.193269E-01  0.157657E-01  0.131233E-01
  0.112776E-01  0.101076E-01  0.954349E-02  0.954349E-02  0.101076E-01  0.112776E-01
  0.131233E-01  0.157657E-01  0.193269E-01  0.239514E-01  0.296942E-01  0.364381E-01
  0.438175E-01  0.509515E-01  0.568471E-01  0.610770E-01  0.532666E-01  0.520306E-01
  0.515820E-01  0.520306E-01  0.532666E-01  0.547184E-01  0.552158E-01  0.536100E-01
  0.494641E-01  0.432995E-01  0.364381E-01  0.300345E-01  0.245578E-01  0.201609E-01
  0.167935E-01  0.143334E-01  0.126728E-01  0.117114E-01  0.113984E-01  0.117114E-01
  0.126728E-01  0.143334E-01  0.167935E-01  0.201609E-01  0.245578E-01  0.300345E-01
  0.364381E-01  0.432995E-01  0.494641E-01  0.536100E-01  0.552158E-01  0.547184E-01
  0.376816E-01  0.352979E-01  0.352979E-01  0.376816E-01  0.422052E-01  0.476120E-01
  0.516275E-01  0.523836E-01  0.494641E-01  0.438175E-01  0.372274E-01  0.310392E-01
  0.257564E-01  0.215458E-01  0.183549E-01  0.160800E-01  0.146256E-01  0.139149E-01
  0.139149E-01  0.146256E-01  0.160800E-01  0.183549E-01  0.215458E-01  0.257564E-01
  0.310392E-01  0.372274E-01  0.438175E-01  0.494641E-01  0.523836E-01  0.516275E-01
  0.476120E-01  0.422052E-01  0.217383E-01  0.199707E-01  0.217383E-01  0.271321E-01
  0.356198E-01  0.449179E-01  0.516275E-01  0.536100E-01  0.509515E-01  0.452561E-01
  0.386991E-01  0.326262E-01  0.275081E-01  0.234861E-01  0.204872E-01  0.184271E-01
  0.172251E-01  0.168280E-01  0.172251E-01  0.184271E-01  0.204872E-01  0.234861E-01
  0.275081E-01  0.326262E-01  0.386991E-01  0.452561E-01  0.509515E-01  0.536100E-01
  0.516275E-01  0.449179E-01  0.356198E-01  0.271321E-01  0.977422E-02  0.977422E-02
  0.142146E-01  0.232796E-01  0.356198E-01  0.476120E-01  0.552158E-01  0.568471E-01
  0.534526E-01  0.472900E-01  0.406726E-01  0.347217E-01  0.298093E-01  0.260073E-01
  0.232372E-01  0.214409E-01  0.205531E-01  0.205531E-01  0.214409E-01  0.232372E-01
  0.260073E-01  0.298093E-01  0.347217E-01  0.406726E-01  0.472900E-01  0.534526E-01
  0.568471E-01  0.552158E-01  0.476120E-01  0.356198E-01  0.232796E-01  0.142146E-01
  0.374801E-02  0.628836E-02  0.142146E-01  0.271321E-01  0.422052E-01  0.547184E-01
  0.610770E-01  0.609748E-01  0.562568E-01  0.495997E-01  0.430217E-01  0.372822E-01
  0.326469E-01  0.291158E-01  0.266373E-01  0.251706E-01  0.246801E-01  0.251706E-01
  0.266373E-01  0.291158E-01  0.326469E-01  0.372822E-01  0.430217E-01  0.495997E-01
  0.562568E-01  0.609748E-01  0.610770E-01  0.547184E-01  0.422052E-01  0.271321E-01
  0.142146E-01  0.628836E-02  0.116654E-01  0.217383E-01  0.366683E-01  0.527106E-01
  0.651943E-01  0.712050E-01  0.709300E-01  0.662869E-01  0.598106E-01  0.533507E-01
  0.476118E-01  0.428584E-01  0.391117E-01  0.363874E-01  0.347257E-01  0.341611E-01
  0.347257E-01  0.363874E-01  0.391117E-01  0.428584E-01  0.476118E-01  0.533507E-01
  0.598106E-01  0.662869E-01  0.709300E-01  0.712050E-01  0.651943E-01  0.527106E-01